 title="contour"
 variables="x","y","u","v",
 "p","den","T","mach","entropy","mu"
 zone i=         400  j=         100  f=point
0.625E-02 0.500E-06 0.100E+04 -.164E-10 0.101E+06 0.706E+01 0.500E+02 0.706E+01 0.657E+04 0.193E-04
0.188E-01 0.500E-06 0.100E+04 -.217E-10 0.101E+06 0.706E+01 0.500E+02 0.706E+01 0.657E+04 0.193E-04
0.312E-01 0.500E-06 0.100E+04 0.238E-10 0.101E+06 0.706E+01 0.500E+02 0.706E+01 0.657E+04 0.193E-04
0.437E-01 0.500E-06 0.100E+04 -.438E-11 0.101E+06 0.706E+01 0.500E+02 0.706E+01 0.657E+04 0.193E-04
0.563E-01 0.500E-06 0.100E+04 0.164E-10 0.101E+06 0.706E+01 0.500E+02 0.706E+01 0.657E+04 0.193E-04
0.688E-01 0.500E-06 0.100E+04 0.170E-10 0.101E+06 0.706E+01 0.500E+02 0.706E+01 0.657E+04 0.193E-04
0.812E-01 0.500E-06 0.100E+04 0.188E-10 0.101E+06 0.706E+01 0.500E+02 0.706E+01 0.657E+04 0.193E-04
0.938E-01 0.500E-06 0.100E+04 -.135E-10 0.101E+06 0.706E+01 0.500E+02 0.706E+01 0.657E+04 0.193E-04
0.106E+00 0.500E-06 0.100E+04 0.133E-10 0.101E+06 0.706E+01 0.500E+02 0.706E+01 0.657E+04 0.193E-04
0.119E+00 0.500E-06 0.100E+04 0.258E-10 0.101E+06 0.706E+01 0.500E+02 0.706E+01 0.657E+04 0.193E-04
0.131E+00 0.500E-06 0.100E+04 -.208E-10 0.101E+06 0.706E+01 0.500E+02 0.706E+01 0.657E+04 0.193E-04
0.144E+00 0.500E-06 0.100E+04 -.735E-11 0.101E+06 0.706E+01 0.500E+02 0.706E+01 0.657E+04 0.193E-04
0.156E+00 0.500E-06 0.100E+04 -.168E-10 0.101E+06 0.706E+01 0.500E+02 0.706E+01 0.657E+04 0.193E-04
0.169E+00 0.500E-06 0.100E+04 -.326E-11 0.101E+06 0.706E+01 0.500E+02 0.706E+01 0.657E+04 0.193E-04
0.181E+00 0.500E-06 0.100E+04 -.130E-10 0.101E+06 0.706E+01 0.500E+02 0.706E+01 0.657E+04 0.193E-04
0.194E+00 0.500E-06 0.100E+04 -.152E-10 0.101E+06 0.706E+01 0.500E+02 0.706E+01 0.657E+04 0.193E-04
0.206E+00 0.500E-06 0.100E+04 -.197E-10 0.101E+06 0.706E+01 0.500E+02 0.706E+01 0.657E+04 0.193E-04
0.219E+00 0.500E-06 0.100E+04 -.238E-10 0.101E+06 0.706E+01 0.500E+02 0.706E+01 0.657E+04 0.193E-04
0.231E+00 0.500E-06 0.100E+04 -.133E-10 0.101E+06 0.706E+01 0.500E+02 0.706E+01 0.657E+04 0.193E-04
0.244E+00 0.500E-06 0.100E+04 -.165E-10 0.101E+06 0.706E+01 0.500E+02 0.706E+01 0.657E+04 0.193E-04
0.256E+00 0.500E-06 0.100E+04 -.254E-11 0.101E+06 0.706E+01 0.500E+02 0.706E+01 0.657E+04 0.193E-04
0.269E+00 0.500E-06 0.100E+04 -.957E-11 0.101E+06 0.706E+01 0.500E+02 0.706E+01 0.657E+04 0.193E-04
0.281E+00 0.500E-06 0.100E+04 -.221E-10 0.101E+06 0.706E+01 0.500E+02 0.706E+01 0.657E+04 0.193E-04
0.294E+00 0.500E-06 0.100E+04 -.175E-10 0.101E+06 0.706E+01 0.500E+02 0.706E+01 0.657E+04 0.193E-04
0.306E+00 0.500E-06 0.100E+04 -.166E-10 0.101E+06 0.706E+01 0.500E+02 0.706E+01 0.657E+04 0.193E-04
0.319E+00 0.500E-06 0.100E+04 -.270E-10 0.101E+06 0.706E+01 0.500E+02 0.706E+01 0.657E+04 0.193E-04
0.331E+00 0.500E-06 0.100E+04 -.168E-10 0.101E+06 0.706E+01 0.500E+02 0.706E+01 0.657E+04 0.193E-04
0.344E+00 0.500E-06 0.100E+04 -.969E-11 0.101E+06 0.706E+01 0.500E+02 0.706E+01 0.657E+04 0.193E-04
0.356E+00 0.500E-06 0.100E+04 -.314E-10 0.101E+06 0.706E+01 0.500E+02 0.706E+01 0.657E+04 0.193E-04
0.369E+00 0.500E-06 0.100E+04 -.132E-10 0.101E+06 0.706E+01 0.500E+02 0.706E+01 0.657E+04 0.193E-04
0.381E+00 0.500E-06 0.100E+04 -.160E-10 0.101E+06 0.706E+01 0.500E+02 0.706E+01 0.657E+04 0.193E-04
0.394E+00 0.500E-06 0.100E+04 -.132E-10 0.101E+06 0.706E+01 0.500E+02 0.706E+01 0.657E+04 0.193E-04
0.406E+00 0.500E-06 0.100E+04 -.304E-10 0.101E+06 0.706E+01 0.500E+02 0.706E+01 0.657E+04 0.193E-04
0.419E+00 0.500E-06 0.100E+04 -.213E-10 0.101E+06 0.706E+01 0.500E+02 0.706E+01 0.657E+04 0.193E-04
0.431E+00 0.500E-06 0.100E+04 -.267E-10 0.101E+06 0.706E+01 0.500E+02 0.706E+01 0.657E+04 0.193E-04
0.444E+00 0.500E-06 0.100E+04 -.228E-10 0.101E+06 0.706E+01 0.500E+02 0.706E+01 0.657E+04 0.193E-04
0.456E+00 0.500E-06 0.100E+04 -.204E-10 0.101E+06 0.706E+01 0.500E+02 0.706E+01 0.657E+04 0.193E-04
0.469E+00 0.500E-06 0.100E+04 -.265E-10 0.101E+06 0.706E+01 0.500E+02 0.706E+01 0.657E+04 0.193E-04
0.481E+00 0.500E-06 0.100E+04 -.217E-10 0.101E+06 0.706E+01 0.500E+02 0.706E+01 0.657E+04 0.193E-04
0.494E+00 0.500E-06 0.100E+04 -.245E-10 0.101E+06 0.706E+01 0.500E+02 0.706E+01 0.657E+04 0.193E-04
0.506E+00 0.500E-06 0.100E+04 -.166E-10 0.101E+06 0.706E+01 0.500E+02 0.706E+01 0.657E+04 0.193E-04
0.519E+00 0.500E-06 0.100E+04 0.548E-11 0.101E+06 0.706E+01 0.500E+02 0.706E+01 0.657E+04 0.193E-04
0.531E+00 0.500E-06 0.100E+04 -.167E-10 0.101E+06 0.706E+01 0.500E+02 0.706E+01 0.657E+04 0.193E-04
0.544E+00 0.500E-06 0.100E+04 -.164E-11 0.101E+06 0.706E+01 0.500E+02 0.706E+01 0.657E+04 0.193E-04
0.556E+00 0.500E-06 0.100E+04 -.861E-11 0.101E+06 0.706E+01 0.500E+02 0.706E+01 0.657E+04 0.193E-04
0.569E+00 0.500E-06 0.100E+04 -.194E-10 0.101E+06 0.706E+01 0.500E+02 0.706E+01 0.657E+04 0.193E-04
0.581E+00 0.500E-06 0.100E+04 0.774E-11 0.101E+06 0.706E+01 0.500E+02 0.706E+01 0.657E+04 0.193E-04
0.594E+00 0.500E-06 0.100E+04 -.161E-10 0.101E+06 0.706E+01 0.500E+02 0.706E+01 0.657E+04 0.193E-04
0.606E+00 0.500E-06 0.100E+04 0.773E-11 0.101E+06 0.706E+01 0.500E+02 0.706E+01 0.657E+04 0.193E-04
0.619E+00 0.500E-06 0.100E+04 -.137E-10 0.101E+06 0.706E+01 0.500E+02 0.706E+01 0.657E+04 0.193E-04
0.631E+00 0.500E-06 0.100E+04 -.198E-10 0.101E+06 0.706E+01 0.500E+02 0.706E+01 0.657E+04 0.193E-04
0.644E+00 0.500E-06 0.100E+04 0.114E-10 0.101E+06 0.706E+01 0.500E+02 0.706E+01 0.657E+04 0.193E-04
0.656E+00 0.500E-06 0.100E+04 -.486E-11 0.101E+06 0.706E+01 0.500E+02 0.706E+01 0.657E+04 0.193E-04
0.669E+00 0.500E-06 0.100E+04 0.229E-11 0.101E+06 0.706E+01 0.500E+02 0.706E+01 0.657E+04 0.193E-04
0.681E+00 0.500E-06 0.100E+04 -.711E-11 0.101E+06 0.706E+01 0.500E+02 0.706E+01 0.657E+04 0.193E-04
0.694E+00 0.500E-06 0.100E+04 -.800E-11 0.101E+06 0.706E+01 0.500E+02 0.706E+01 0.657E+04 0.193E-04
0.706E+00 0.500E-06 0.100E+04 0.495E-11 0.101E+06 0.706E+01 0.500E+02 0.706E+01 0.657E+04 0.193E-04
0.719E+00 0.500E-06 0.100E+04 -.182E-10 0.101E+06 0.706E+01 0.500E+02 0.706E+01 0.657E+04 0.193E-04
0.731E+00 0.500E-06 0.100E+04 0.105E-10 0.101E+06 0.706E+01 0.500E+02 0.706E+01 0.657E+04 0.193E-04
0.744E+00 0.500E-06 0.100E+04 -.176E-10 0.101E+06 0.706E+01 0.500E+02 0.706E+01 0.657E+04 0.193E-04
0.756E+00 0.500E-06 0.100E+04 -.221E-10 0.101E+06 0.706E+01 0.500E+02 0.706E+01 0.657E+04 0.193E-04
0.769E+00 0.500E-06 0.100E+04 0.108E-10 0.101E+06 0.706E+01 0.500E+02 0.706E+01 0.657E+04 0.193E-04
0.781E+00 0.500E-06 0.100E+04 -.209E-10 0.101E+06 0.706E+01 0.500E+02 0.706E+01 0.657E+04 0.193E-04
0.794E+00 0.500E-06 0.100E+04 0.109E-10 0.101E+06 0.706E+01 0.500E+02 0.706E+01 0.657E+04 0.193E-04
0.806E+00 0.500E-06 0.100E+04 -.224E-10 0.101E+06 0.706E+01 0.500E+02 0.706E+01 0.657E+04 0.193E-04
0.819E+00 0.500E-06 0.100E+04 -.224E-10 0.101E+06 0.706E+01 0.500E+02 0.706E+01 0.657E+04 0.193E-04
0.831E+00 0.500E-06 0.100E+04 0.127E-11 0.101E+06 0.706E+01 0.500E+02 0.706E+01 0.657E+04 0.193E-04
0.844E+00 0.500E-06 0.100E+04 -.228E-10 0.101E+06 0.706E+01 0.500E+02 0.706E+01 0.657E+04 0.193E-04
0.856E+00 0.500E-06 0.100E+04 0.161E-10 0.101E+06 0.706E+01 0.500E+02 0.706E+01 0.657E+04 0.193E-04
0.869E+00 0.500E-06 0.100E+04 -.205E-10 0.101E+06 0.706E+01 0.500E+02 0.706E+01 0.657E+04 0.193E-04
0.881E+00 0.500E-06 0.100E+04 -.163E-10 0.101E+06 0.706E+01 0.500E+02 0.706E+01 0.657E+04 0.193E-04
0.894E+00 0.500E-06 0.100E+04 0.561E-11 0.101E+06 0.706E+01 0.500E+02 0.706E+01 0.657E+04 0.193E-04
0.906E+00 0.500E-06 0.100E+04 -.137E-10 0.101E+06 0.706E+01 0.500E+02 0.706E+01 0.657E+04 0.193E-04
0.919E+00 0.500E-06 0.100E+04 0.121E-11 0.101E+06 0.706E+01 0.500E+02 0.706E+01 0.657E+04 0.193E-04
0.931E+00 0.500E-06 0.100E+04 -.179E-10 0.101E+06 0.706E+01 0.500E+02 0.706E+01 0.657E+04 0.193E-04
0.944E+00 0.500E-06 0.100E+04 -.197E-10 0.101E+06 0.706E+01 0.500E+02 0.706E+01 0.657E+04 0.193E-04
0.956E+00 0.500E-06 0.100E+04 0.752E-11 0.101E+06 0.706E+01 0.500E+02 0.706E+01 0.657E+04 0.193E-04
0.969E+00 0.500E-06 0.100E+04 -.159E-10 0.101E+06 0.706E+01 0.500E+02 0.706E+01 0.657E+04 0.193E-04
0.981E+00 0.500E-06 0.100E+04 0.905E-09 0.101E+06 0.706E+01 0.500E+02 0.706E+01 0.657E+04 0.193E-04
0.994E+00 0.500E-06 0.100E+04 -.564E-02 0.101E+06 0.706E+01 0.500E+02 0.706E+01 0.657E+04 0.193E-04
0.101E+01 0.500E-06 0.202E+02 0.469E+00 0.126E+06 0.641E+00 0.684E+03 0.385E-01 0.234E+06 0.197E-03
0.102E+01 0.500E-06 0.660E+01 -.632E-02 0.107E+06 0.605E+00 0.617E+03 0.133E-01 0.216E+06 0.184E-03
0.103E+01 0.500E-06 0.635E+01 0.457E-02 0.105E+06 0.598E+00 0.612E+03 0.128E-01 0.216E+06 0.183E-03
0.104E+01 0.500E-06 0.633E+01 0.213E-03 0.105E+06 0.597E+00 0.612E+03 0.128E-01 0.216E+06 0.183E-03
0.106E+01 0.500E-06 0.633E+01 0.106E-01 0.105E+06 0.597E+00 0.612E+03 0.128E-01 0.216E+06 0.183E-03
0.107E+01 0.500E-06 0.633E+01 0.695E-02 0.105E+06 0.597E+00 0.612E+03 0.128E-01 0.216E+06 0.183E-03
0.108E+01 0.500E-06 0.633E+01 0.508E-02 0.105E+06 0.597E+00 0.612E+03 0.128E-01 0.216E+06 0.183E-03
0.109E+01 0.500E-06 0.633E+01 0.822E-02 0.105E+06 0.597E+00 0.612E+03 0.128E-01 0.216E+06 0.183E-03
0.111E+01 0.500E-06 0.633E+01 0.690E-02 0.105E+06 0.597E+00 0.612E+03 0.128E-01 0.216E+06 0.183E-03
0.112E+01 0.500E-06 0.633E+01 0.381E-02 0.105E+06 0.597E+00 0.612E+03 0.128E-01 0.216E+06 0.183E-03
0.113E+01 0.500E-06 0.633E+01 0.631E-02 0.105E+06 0.597E+00 0.612E+03 0.128E-01 0.216E+06 0.183E-03
0.114E+01 0.500E-06 0.633E+01 0.122E-01 0.105E+06 0.597E+00 0.612E+03 0.128E-01 0.216E+06 0.183E-03
0.116E+01 0.500E-06 0.633E+01 0.134E-01 0.105E+06 0.597E+00 0.612E+03 0.128E-01 0.216E+06 0.183E-03
0.117E+01 0.500E-06 0.633E+01 0.113E-01 0.105E+06 0.597E+00 0.612E+03 0.128E-01 0.216E+06 0.183E-03
0.118E+01 0.500E-06 0.633E+01 0.730E-02 0.105E+06 0.597E+00 0.612E+03 0.128E-01 0.216E+06 0.183E-03
0.119E+01 0.500E-06 0.633E+01 0.535E-02 0.105E+06 0.597E+00 0.612E+03 0.128E-01 0.216E+06 0.183E-03
0.121E+01 0.500E-06 0.633E+01 0.555E-02 0.105E+06 0.597E+00 0.612E+03 0.128E-01 0.216E+06 0.183E-03
0.122E+01 0.500E-06 0.633E+01 0.666E-02 0.105E+06 0.597E+00 0.612E+03 0.128E-01 0.216E+06 0.183E-03
0.123E+01 0.500E-06 0.633E+01 0.635E-02 0.105E+06 0.597E+00 0.612E+03 0.128E-01 0.216E+06 0.183E-03
0.124E+01 0.500E-06 0.633E+01 0.618E-02 0.105E+06 0.597E+00 0.612E+03 0.128E-01 0.216E+06 0.183E-03
0.126E+01 0.500E-06 0.634E+01 0.599E-02 0.105E+06 0.597E+00 0.612E+03 0.128E-01 0.216E+06 0.183E-03
0.127E+01 0.500E-06 0.634E+01 0.648E-02 0.105E+06 0.597E+00 0.612E+03 0.128E-01 0.216E+06 0.183E-03
0.128E+01 0.500E-06 0.634E+01 0.674E-02 0.105E+06 0.597E+00 0.612E+03 0.128E-01 0.216E+06 0.183E-03
0.129E+01 0.500E-06 0.634E+01 0.786E-02 0.105E+06 0.597E+00 0.612E+03 0.128E-01 0.216E+06 0.183E-03
0.131E+01 0.500E-06 0.633E+01 0.894E-02 0.105E+06 0.597E+00 0.612E+03 0.128E-01 0.216E+06 0.183E-03
0.132E+01 0.500E-06 0.634E+01 0.916E-02 0.105E+06 0.597E+00 0.612E+03 0.128E-01 0.216E+06 0.183E-03
0.133E+01 0.500E-06 0.634E+01 0.922E-02 0.105E+06 0.597E+00 0.612E+03 0.128E-01 0.216E+06 0.183E-03
0.134E+01 0.500E-06 0.634E+01 0.831E-02 0.105E+06 0.597E+00 0.612E+03 0.128E-01 0.216E+06 0.183E-03
0.136E+01 0.500E-06 0.634E+01 0.757E-02 0.105E+06 0.597E+00 0.612E+03 0.128E-01 0.216E+06 0.183E-03
0.137E+01 0.500E-06 0.634E+01 0.709E-02 0.105E+06 0.597E+00 0.612E+03 0.128E-01 0.216E+06 0.183E-03
0.138E+01 0.500E-06 0.634E+01 0.642E-02 0.105E+06 0.597E+00 0.612E+03 0.128E-01 0.216E+06 0.183E-03
0.139E+01 0.500E-06 0.634E+01 0.611E-02 0.105E+06 0.597E+00 0.612E+03 0.128E-01 0.216E+06 0.183E-03
0.141E+01 0.500E-06 0.634E+01 0.682E-02 0.105E+06 0.597E+00 0.612E+03 0.128E-01 0.216E+06 0.183E-03
0.142E+01 0.500E-06 0.634E+01 0.740E-02 0.105E+06 0.597E+00 0.612E+03 0.128E-01 0.216E+06 0.183E-03
0.143E+01 0.500E-06 0.634E+01 0.727E-02 0.105E+06 0.597E+00 0.612E+03 0.128E-01 0.216E+06 0.183E-03
0.144E+01 0.500E-06 0.634E+01 0.710E-02 0.105E+06 0.597E+00 0.612E+03 0.128E-01 0.216E+06 0.183E-03
0.146E+01 0.500E-06 0.634E+01 0.695E-02 0.105E+06 0.597E+00 0.612E+03 0.128E-01 0.216E+06 0.183E-03
0.147E+01 0.500E-06 0.634E+01 0.680E-02 0.105E+06 0.597E+00 0.612E+03 0.128E-01 0.216E+06 0.183E-03
0.148E+01 0.500E-06 0.634E+01 0.691E-02 0.105E+06 0.597E+00 0.612E+03 0.128E-01 0.216E+06 0.183E-03
0.149E+01 0.500E-06 0.634E+01 0.717E-02 0.105E+06 0.597E+00 0.612E+03 0.128E-01 0.216E+06 0.183E-03
0.151E+01 0.500E-06 0.634E+01 0.750E-02 0.105E+06 0.597E+00 0.612E+03 0.128E-01 0.216E+06 0.183E-03
0.152E+01 0.500E-06 0.634E+01 0.741E-02 0.105E+06 0.597E+00 0.612E+03 0.128E-01 0.216E+06 0.183E-03
0.153E+01 0.500E-06 0.634E+01 0.708E-02 0.105E+06 0.597E+00 0.612E+03 0.128E-01 0.216E+06 0.183E-03
0.154E+01 0.500E-06 0.634E+01 0.698E-02 0.105E+06 0.597E+00 0.612E+03 0.128E-01 0.216E+06 0.183E-03
0.156E+01 0.500E-06 0.634E+01 0.679E-02 0.105E+06 0.597E+00 0.612E+03 0.128E-01 0.216E+06 0.183E-03
0.157E+01 0.500E-06 0.634E+01 0.649E-02 0.105E+06 0.597E+00 0.612E+03 0.128E-01 0.216E+06 0.183E-03
0.158E+01 0.500E-06 0.634E+01 0.646E-02 0.105E+06 0.597E+00 0.612E+03 0.128E-01 0.216E+06 0.183E-03
0.159E+01 0.500E-06 0.634E+01 0.678E-02 0.105E+06 0.597E+00 0.612E+03 0.128E-01 0.216E+06 0.183E-03
0.161E+01 0.500E-06 0.634E+01 0.730E-02 0.105E+06 0.597E+00 0.612E+03 0.128E-01 0.216E+06 0.183E-03
0.162E+01 0.500E-06 0.634E+01 0.730E-02 0.105E+06 0.597E+00 0.612E+03 0.128E-01 0.216E+06 0.183E-03
0.163E+01 0.500E-06 0.634E+01 0.771E-02 0.105E+06 0.597E+00 0.612E+03 0.128E-01 0.216E+06 0.183E-03
0.164E+01 0.500E-06 0.634E+01 0.850E-02 0.105E+06 0.597E+00 0.612E+03 0.128E-01 0.216E+06 0.183E-03
0.166E+01 0.500E-06 0.634E+01 0.911E-02 0.105E+06 0.597E+00 0.612E+03 0.128E-01 0.216E+06 0.183E-03
0.167E+01 0.500E-06 0.634E+01 0.927E-02 0.105E+06 0.597E+00 0.612E+03 0.128E-01 0.216E+06 0.183E-03
0.168E+01 0.500E-06 0.634E+01 0.926E-02 0.105E+06 0.597E+00 0.612E+03 0.128E-01 0.216E+06 0.183E-03
0.169E+01 0.500E-06 0.634E+01 0.950E-02 0.105E+06 0.597E+00 0.612E+03 0.128E-01 0.216E+06 0.183E-03
0.171E+01 0.500E-06 0.635E+01 0.104E-01 0.105E+06 0.597E+00 0.612E+03 0.128E-01 0.216E+06 0.183E-03
0.172E+01 0.500E-06 0.635E+01 0.109E-01 0.105E+06 0.597E+00 0.612E+03 0.128E-01 0.216E+06 0.183E-03
0.173E+01 0.500E-06 0.635E+01 0.105E-01 0.105E+06 0.598E+00 0.612E+03 0.128E-01 0.216E+06 0.183E-03
0.174E+01 0.500E-06 0.635E+01 0.102E-01 0.105E+06 0.598E+00 0.612E+03 0.128E-01 0.216E+06 0.183E-03
0.176E+01 0.500E-06 0.635E+01 0.990E-02 0.105E+06 0.598E+00 0.612E+03 0.128E-01 0.216E+06 0.183E-03
0.177E+01 0.500E-06 0.635E+01 0.889E-02 0.105E+06 0.598E+00 0.612E+03 0.128E-01 0.216E+06 0.183E-03
0.178E+01 0.500E-06 0.635E+01 0.656E-02 0.105E+06 0.598E+00 0.612E+03 0.128E-01 0.216E+06 0.183E-03
0.179E+01 0.500E-06 0.635E+01 0.368E-02 0.105E+06 0.597E+00 0.612E+03 0.128E-01 0.216E+06 0.183E-03
0.181E+01 0.500E-06 0.635E+01 0.310E-03 0.105E+06 0.597E+00 0.612E+03 0.128E-01 0.216E+06 0.183E-03
0.182E+01 0.500E-06 0.634E+01 -.395E-02 0.105E+06 0.597E+00 0.612E+03 0.128E-01 0.216E+06 0.183E-03
0.183E+01 0.500E-06 0.634E+01 -.690E-02 0.105E+06 0.597E+00 0.612E+03 0.128E-01 0.216E+06 0.183E-03
0.184E+01 0.500E-06 0.634E+01 -.918E-02 0.105E+06 0.597E+00 0.612E+03 0.128E-01 0.216E+06 0.183E-03
0.186E+01 0.500E-06 0.634E+01 -.112E-01 0.105E+06 0.597E+00 0.612E+03 0.128E-01 0.216E+06 0.183E-03
0.187E+01 0.500E-06 0.634E+01 -.126E-01 0.105E+06 0.597E+00 0.612E+03 0.128E-01 0.216E+06 0.183E-03
0.188E+01 0.500E-06 0.634E+01 -.134E-01 0.105E+06 0.597E+00 0.612E+03 0.128E-01 0.216E+06 0.183E-03
0.189E+01 0.500E-06 0.634E+01 -.128E-01 0.105E+06 0.597E+00 0.612E+03 0.128E-01 0.216E+06 0.183E-03
0.191E+01 0.500E-06 0.634E+01 -.104E-01 0.105E+06 0.597E+00 0.612E+03 0.128E-01 0.216E+06 0.183E-03
0.192E+01 0.500E-06 0.634E+01 -.622E-02 0.105E+06 0.597E+00 0.612E+03 0.128E-01 0.216E+06 0.183E-03
0.193E+01 0.500E-06 0.634E+01 0.757E-03 0.105E+06 0.597E+00 0.612E+03 0.128E-01 0.216E+06 0.183E-03
0.194E+01 0.500E-06 0.634E+01 0.106E-01 0.105E+06 0.597E+00 0.612E+03 0.128E-01 0.216E+06 0.183E-03
0.196E+01 0.500E-06 0.634E+01 0.218E-01 0.105E+06 0.597E+00 0.612E+03 0.128E-01 0.216E+06 0.183E-03
0.197E+01 0.500E-06 0.634E+01 0.340E-01 0.105E+06 0.597E+00 0.612E+03 0.128E-01 0.216E+06 0.183E-03
0.198E+01 0.500E-06 0.635E+01 0.462E-01 0.105E+06 0.597E+00 0.612E+03 0.128E-01 0.216E+06 0.183E-03
0.199E+01 0.500E-06 0.635E+01 0.575E-01 0.105E+06 0.597E+00 0.612E+03 0.128E-01 0.216E+06 0.183E-03
0.201E+01 0.500E-06 0.635E+01 0.658E-01 0.105E+06 0.598E+00 0.612E+03 0.128E-01 0.216E+06 0.183E-03
0.202E+01 0.500E-06 0.636E+01 0.644E-01 0.105E+06 0.598E+00 0.612E+03 0.128E-01 0.216E+06 0.183E-03
0.203E+01 0.500E-06 0.636E+01 0.506E-01 0.105E+06 0.598E+00 0.612E+03 0.128E-01 0.216E+06 0.183E-03
0.204E+01 0.500E-06 0.636E+01 0.307E-01 0.105E+06 0.598E+00 0.612E+03 0.128E-01 0.216E+06 0.183E-03
0.206E+01 0.500E-06 0.636E+01 0.132E-01 0.105E+06 0.599E+00 0.612E+03 0.128E-01 0.216E+06 0.183E-03
0.207E+01 0.500E-06 0.636E+01 -.183E-02 0.105E+06 0.599E+00 0.612E+03 0.128E-01 0.216E+06 0.183E-03
0.208E+01 0.500E-06 0.636E+01 -.147E-01 0.105E+06 0.599E+00 0.612E+03 0.128E-01 0.216E+06 0.183E-03
0.209E+01 0.500E-06 0.636E+01 -.252E-01 0.105E+06 0.598E+00 0.612E+03 0.128E-01 0.216E+06 0.183E-03
0.211E+01 0.500E-06 0.636E+01 -.331E-01 0.105E+06 0.598E+00 0.612E+03 0.128E-01 0.216E+06 0.183E-03
0.212E+01 0.500E-06 0.636E+01 -.335E-01 0.105E+06 0.598E+00 0.612E+03 0.128E-01 0.216E+06 0.183E-03
0.213E+01 0.500E-06 0.636E+01 -.272E-01 0.105E+06 0.598E+00 0.612E+03 0.128E-01 0.216E+06 0.183E-03
0.214E+01 0.500E-06 0.635E+01 -.180E-01 0.105E+06 0.598E+00 0.612E+03 0.128E-01 0.216E+06 0.183E-03
0.216E+01 0.500E-06 0.635E+01 -.867E-02 0.105E+06 0.598E+00 0.612E+03 0.128E-01 0.216E+06 0.183E-03
0.217E+01 0.500E-06 0.635E+01 0.169E-03 0.105E+06 0.598E+00 0.612E+03 0.128E-01 0.216E+06 0.183E-03
0.218E+01 0.500E-06 0.635E+01 0.812E-02 0.105E+06 0.598E+00 0.612E+03 0.128E-01 0.216E+06 0.183E-03
0.219E+01 0.500E-06 0.635E+01 0.140E-01 0.105E+06 0.598E+00 0.612E+03 0.128E-01 0.216E+06 0.183E-03
0.221E+01 0.500E-06 0.635E+01 0.179E-01 0.105E+06 0.598E+00 0.612E+03 0.128E-01 0.216E+06 0.183E-03
0.222E+01 0.500E-06 0.635E+01 0.190E-01 0.105E+06 0.598E+00 0.612E+03 0.128E-01 0.216E+06 0.183E-03
0.223E+01 0.500E-06 0.635E+01 0.157E-01 0.105E+06 0.598E+00 0.612E+03 0.128E-01 0.216E+06 0.183E-03
0.224E+01 0.500E-06 0.635E+01 0.109E-01 0.105E+06 0.598E+00 0.612E+03 0.128E-01 0.216E+06 0.183E-03
0.226E+01 0.500E-06 0.635E+01 0.651E-02 0.105E+06 0.598E+00 0.612E+03 0.128E-01 0.216E+06 0.183E-03
0.227E+01 0.500E-06 0.635E+01 0.351E-02 0.105E+06 0.598E+00 0.612E+03 0.128E-01 0.216E+06 0.183E-03
0.228E+01 0.500E-06 0.635E+01 0.362E-02 0.105E+06 0.598E+00 0.612E+03 0.128E-01 0.216E+06 0.183E-03
0.229E+01 0.500E-06 0.635E+01 0.690E-02 0.105E+06 0.598E+00 0.612E+03 0.128E-01 0.216E+06 0.183E-03
0.231E+01 0.500E-06 0.635E+01 0.121E-01 0.105E+06 0.598E+00 0.612E+03 0.128E-01 0.216E+06 0.183E-03
0.232E+01 0.500E-06 0.635E+01 0.181E-01 0.105E+06 0.598E+00 0.612E+03 0.128E-01 0.216E+06 0.183E-03
0.233E+01 0.500E-06 0.635E+01 0.238E-01 0.105E+06 0.598E+00 0.612E+03 0.128E-01 0.216E+06 0.183E-03
0.234E+01 0.500E-06 0.635E+01 0.283E-01 0.105E+06 0.598E+00 0.612E+03 0.128E-01 0.216E+06 0.183E-03
0.236E+01 0.500E-06 0.635E+01 0.309E-01 0.105E+06 0.598E+00 0.612E+03 0.128E-01 0.216E+06 0.183E-03
0.237E+01 0.500E-06 0.635E+01 0.315E-01 0.105E+06 0.598E+00 0.612E+03 0.128E-01 0.216E+06 0.183E-03
0.238E+01 0.500E-06 0.635E+01 0.298E-01 0.105E+06 0.598E+00 0.612E+03 0.128E-01 0.216E+06 0.183E-03
0.239E+01 0.500E-06 0.635E+01 0.268E-01 0.105E+06 0.598E+00 0.612E+03 0.128E-01 0.216E+06 0.183E-03
0.241E+01 0.500E-06 0.635E+01 0.232E-01 0.105E+06 0.598E+00 0.612E+03 0.128E-01 0.216E+06 0.183E-03
0.242E+01 0.500E-06 0.635E+01 0.197E-01 0.105E+06 0.598E+00 0.612E+03 0.128E-01 0.216E+06 0.183E-03
0.243E+01 0.500E-06 0.635E+01 0.171E-01 0.105E+06 0.598E+00 0.612E+03 0.128E-01 0.216E+06 0.183E-03
0.244E+01 0.500E-06 0.635E+01 0.157E-01 0.105E+06 0.598E+00 0.612E+03 0.128E-01 0.216E+06 0.183E-03
0.246E+01 0.500E-06 0.635E+01 0.156E-01 0.105E+06 0.598E+00 0.612E+03 0.128E-01 0.216E+06 0.183E-03
0.247E+01 0.500E-06 0.635E+01 0.165E-01 0.105E+06 0.598E+00 0.612E+03 0.128E-01 0.216E+06 0.183E-03
0.248E+01 0.500E-06 0.635E+01 0.177E-01 0.105E+06 0.598E+00 0.612E+03 0.128E-01 0.216E+06 0.183E-03
0.249E+01 0.500E-06 0.635E+01 0.186E-01 0.105E+06 0.598E+00 0.612E+03 0.128E-01 0.216E+06 0.183E-03
0.251E+01 0.500E-06 0.635E+01 0.188E-01 0.105E+06 0.598E+00 0.612E+03 0.128E-01 0.216E+06 0.183E-03
0.252E+01 0.500E-06 0.635E+01 0.184E-01 0.105E+06 0.598E+00 0.612E+03 0.128E-01 0.216E+06 0.183E-03
0.253E+01 0.500E-06 0.636E+01 0.176E-01 0.105E+06 0.598E+00 0.612E+03 0.128E-01 0.216E+06 0.183E-03
0.254E+01 0.500E-06 0.636E+01 0.168E-01 0.105E+06 0.598E+00 0.612E+03 0.128E-01 0.216E+06 0.183E-03
0.256E+01 0.500E-06 0.636E+01 0.158E-01 0.105E+06 0.598E+00 0.612E+03 0.128E-01 0.216E+06 0.183E-03
0.257E+01 0.500E-06 0.636E+01 0.143E-01 0.105E+06 0.598E+00 0.612E+03 0.128E-01 0.216E+06 0.183E-03
0.258E+01 0.500E-06 0.636E+01 0.123E-01 0.105E+06 0.598E+00 0.612E+03 0.128E-01 0.216E+06 0.183E-03
0.259E+01 0.500E-06 0.636E+01 0.995E-02 0.105E+06 0.598E+00 0.612E+03 0.128E-01 0.216E+06 0.183E-03
0.261E+01 0.500E-06 0.636E+01 0.792E-02 0.105E+06 0.598E+00 0.612E+03 0.128E-01 0.216E+06 0.183E-03
0.262E+01 0.500E-06 0.636E+01 0.655E-02 0.105E+06 0.598E+00 0.612E+03 0.128E-01 0.216E+06 0.183E-03
0.263E+01 0.500E-06 0.635E+01 0.573E-02 0.105E+06 0.598E+00 0.612E+03 0.128E-01 0.216E+06 0.183E-03
0.264E+01 0.500E-06 0.635E+01 0.500E-02 0.105E+06 0.598E+00 0.612E+03 0.128E-01 0.216E+06 0.183E-03
0.266E+01 0.500E-06 0.635E+01 0.394E-02 0.105E+06 0.598E+00 0.612E+03 0.128E-01 0.216E+06 0.183E-03
0.267E+01 0.500E-06 0.635E+01 0.228E-02 0.105E+06 0.598E+00 0.612E+03 0.128E-01 0.216E+06 0.183E-03
0.268E+01 0.500E-06 0.635E+01 -.418E-03 0.105E+06 0.598E+00 0.612E+03 0.128E-01 0.216E+06 0.183E-03
0.269E+01 0.500E-06 0.635E+01 -.331E-02 0.105E+06 0.598E+00 0.612E+03 0.128E-01 0.216E+06 0.183E-03
0.271E+01 0.500E-06 0.635E+01 -.591E-02 0.105E+06 0.598E+00 0.612E+03 0.128E-01 0.216E+06 0.183E-03
0.272E+01 0.500E-06 0.635E+01 -.769E-02 0.105E+06 0.598E+00 0.612E+03 0.128E-01 0.216E+06 0.183E-03
0.273E+01 0.500E-06 0.635E+01 -.831E-02 0.105E+06 0.598E+00 0.612E+03 0.128E-01 0.216E+06 0.183E-03
0.274E+01 0.500E-06 0.635E+01 -.832E-02 0.105E+06 0.598E+00 0.612E+03 0.128E-01 0.216E+06 0.183E-03
0.276E+01 0.500E-06 0.635E+01 -.821E-02 0.105E+06 0.598E+00 0.612E+03 0.128E-01 0.216E+06 0.183E-03
0.277E+01 0.500E-06 0.635E+01 -.820E-02 0.105E+06 0.598E+00 0.612E+03 0.128E-01 0.216E+06 0.183E-03
0.278E+01 0.500E-06 0.635E+01 -.822E-02 0.105E+06 0.598E+00 0.612E+03 0.128E-01 0.216E+06 0.183E-03
0.279E+01 0.500E-06 0.635E+01 -.811E-02 0.105E+06 0.598E+00 0.612E+03 0.128E-01 0.216E+06 0.183E-03
0.281E+01 0.500E-06 0.635E+01 -.781E-02 0.105E+06 0.598E+00 0.612E+03 0.128E-01 0.216E+06 0.183E-03
0.282E+01 0.500E-06 0.635E+01 -.739E-02 0.105E+06 0.598E+00 0.612E+03 0.128E-01 0.216E+06 0.183E-03
0.283E+01 0.500E-06 0.635E+01 -.700E-02 0.105E+06 0.598E+00 0.612E+03 0.128E-01 0.216E+06 0.183E-03
0.284E+01 0.500E-06 0.634E+01 -.675E-02 0.105E+06 0.598E+00 0.612E+03 0.128E-01 0.216E+06 0.183E-03
0.286E+01 0.500E-06 0.634E+01 -.663E-02 0.105E+06 0.598E+00 0.612E+03 0.128E-01 0.216E+06 0.183E-03
0.287E+01 0.500E-06 0.634E+01 -.653E-02 0.105E+06 0.598E+00 0.612E+03 0.128E-01 0.216E+06 0.183E-03
0.288E+01 0.500E-06 0.634E+01 -.631E-02 0.105E+06 0.598E+00 0.612E+03 0.128E-01 0.216E+06 0.183E-03
0.289E+01 0.500E-06 0.634E+01 -.585E-02 0.105E+06 0.598E+00 0.612E+03 0.128E-01 0.216E+06 0.183E-03
0.291E+01 0.500E-06 0.634E+01 -.510E-02 0.105E+06 0.598E+00 0.612E+03 0.128E-01 0.216E+06 0.183E-03
0.292E+01 0.500E-06 0.634E+01 -.410E-02 0.105E+06 0.598E+00 0.612E+03 0.128E-01 0.216E+06 0.183E-03
0.293E+01 0.500E-06 0.634E+01 -.294E-02 0.105E+06 0.598E+00 0.612E+03 0.128E-01 0.216E+06 0.183E-03
0.294E+01 0.500E-06 0.634E+01 -.164E-02 0.105E+06 0.598E+00 0.612E+03 0.128E-01 0.216E+06 0.183E-03
0.296E+01 0.500E-06 0.634E+01 0.839E-04 0.105E+06 0.598E+00 0.612E+03 0.128E-01 0.216E+06 0.183E-03
0.297E+01 0.500E-06 0.634E+01 0.239E-02 0.105E+06 0.598E+00 0.612E+03 0.128E-01 0.216E+06 0.183E-03
0.298E+01 0.500E-06 0.634E+01 0.491E-02 0.105E+06 0.598E+00 0.612E+03 0.128E-01 0.216E+06 0.183E-03
0.299E+01 0.500E-06 0.634E+01 0.779E-02 0.105E+06 0.598E+00 0.612E+03 0.128E-01 0.216E+06 0.183E-03
0.301E+01 0.500E-06 0.634E+01 0.111E-01 0.105E+06 0.598E+00 0.612E+03 0.128E-01 0.216E+06 0.183E-03
0.302E+01 0.500E-06 0.634E+01 0.148E-01 0.105E+06 0.598E+00 0.612E+03 0.128E-01 0.216E+06 0.183E-03
0.303E+01 0.500E-06 0.634E+01 0.186E-01 0.105E+06 0.598E+00 0.612E+03 0.128E-01 0.216E+06 0.183E-03
0.304E+01 0.500E-06 0.634E+01 0.223E-01 0.105E+06 0.598E+00 0.612E+03 0.128E-01 0.216E+06 0.183E-03
0.306E+01 0.500E-06 0.634E+01 0.253E-01 0.105E+06 0.598E+00 0.612E+03 0.128E-01 0.216E+06 0.183E-03
0.307E+01 0.500E-06 0.634E+01 0.275E-01 0.105E+06 0.598E+00 0.612E+03 0.128E-01 0.216E+06 0.183E-03
0.308E+01 0.500E-06 0.634E+01 0.287E-01 0.105E+06 0.598E+00 0.612E+03 0.128E-01 0.216E+06 0.183E-03
0.309E+01 0.500E-06 0.634E+01 0.292E-01 0.105E+06 0.598E+00 0.612E+03 0.128E-01 0.216E+06 0.183E-03
0.311E+01 0.500E-06 0.634E+01 0.293E-01 0.105E+06 0.598E+00 0.612E+03 0.128E-01 0.216E+06 0.183E-03
0.312E+01 0.500E-06 0.634E+01 0.292E-01 0.105E+06 0.598E+00 0.612E+03 0.128E-01 0.216E+06 0.183E-03
0.313E+01 0.500E-06 0.634E+01 0.285E-01 0.105E+06 0.598E+00 0.612E+03 0.128E-01 0.216E+06 0.183E-03
0.314E+01 0.500E-06 0.634E+01 0.267E-01 0.105E+06 0.598E+00 0.612E+03 0.128E-01 0.216E+06 0.183E-03
0.316E+01 0.500E-06 0.634E+01 0.232E-01 0.105E+06 0.598E+00 0.612E+03 0.128E-01 0.216E+06 0.183E-03
0.317E+01 0.500E-06 0.634E+01 0.170E-01 0.105E+06 0.598E+00 0.612E+03 0.128E-01 0.216E+06 0.183E-03
0.318E+01 0.500E-06 0.633E+01 0.781E-02 0.105E+06 0.598E+00 0.612E+03 0.128E-01 0.216E+06 0.183E-03
0.319E+01 0.500E-06 0.633E+01 -.582E-02 0.105E+06 0.598E+00 0.612E+03 0.128E-01 0.216E+06 0.183E-03
0.321E+01 0.500E-06 0.633E+01 -.225E-01 0.105E+06 0.598E+00 0.612E+03 0.128E-01 0.216E+06 0.183E-03
0.322E+01 0.500E-06 0.633E+01 -.426E-01 0.105E+06 0.598E+00 0.612E+03 0.128E-01 0.216E+06 0.183E-03
0.323E+01 0.500E-06 0.632E+01 -.654E-01 0.105E+06 0.598E+00 0.612E+03 0.128E-01 0.216E+06 0.183E-03
0.324E+01 0.500E-06 0.632E+01 -.905E-01 0.105E+06 0.598E+00 0.612E+03 0.127E-01 0.216E+06 0.183E-03
0.326E+01 0.500E-06 0.632E+01 -.118E+00 0.105E+06 0.597E+00 0.612E+03 0.127E-01 0.216E+06 0.183E-03
0.327E+01 0.500E-06 0.631E+01 -.147E+00 0.105E+06 0.597E+00 0.612E+03 0.127E-01 0.216E+06 0.183E-03
0.328E+01 0.500E-06 0.630E+01 -.179E+00 0.105E+06 0.596E+00 0.612E+03 0.127E-01 0.216E+06 0.183E-03
0.329E+01 0.500E-06 0.629E+01 -.214E+00 0.105E+06 0.596E+00 0.611E+03 0.127E-01 0.216E+06 0.183E-03
0.331E+01 0.500E-06 0.628E+01 -.252E+00 0.104E+06 0.595E+00 0.611E+03 0.127E-01 0.216E+06 0.183E-03
0.332E+01 0.500E-06 0.627E+01 -.293E+00 0.104E+06 0.594E+00 0.611E+03 0.127E-01 0.216E+06 0.183E-03
0.333E+01 0.500E-06 0.626E+01 -.334E+00 0.104E+06 0.593E+00 0.610E+03 0.127E-01 0.216E+06 0.183E-03
0.334E+01 0.500E-06 0.625E+01 -.374E+00 0.104E+06 0.592E+00 0.610E+03 0.126E-01 0.216E+06 0.183E-03
0.336E+01 0.500E-06 0.624E+01 -.411E+00 0.103E+06 0.591E+00 0.609E+03 0.126E-01 0.216E+06 0.183E-03
0.337E+01 0.500E-06 0.622E+01 -.434E+00 0.103E+06 0.590E+00 0.609E+03 0.126E-01 0.216E+06 0.183E-03
0.338E+01 0.500E-06 0.621E+01 -.436E+00 0.103E+06 0.589E+00 0.608E+03 0.126E-01 0.216E+06 0.183E-03
0.339E+01 0.500E-06 0.619E+01 -.410E+00 0.102E+06 0.587E+00 0.608E+03 0.126E-01 0.216E+06 0.183E-03
0.341E+01 0.500E-06 0.618E+01 -.355E+00 0.102E+06 0.586E+00 0.607E+03 0.125E-01 0.216E+06 0.182E-03
0.342E+01 0.500E-06 0.616E+01 -.279E+00 0.102E+06 0.585E+00 0.607E+03 0.125E-01 0.216E+06 0.182E-03
0.343E+01 0.500E-06 0.615E+01 -.197E+00 0.102E+06 0.585E+00 0.607E+03 0.125E-01 0.216E+06 0.182E-03
0.344E+01 0.500E-06 0.615E+01 -.121E+00 0.102E+06 0.584E+00 0.606E+03 0.125E-01 0.216E+06 0.182E-03
0.346E+01 0.500E-06 0.614E+01 -.581E-01 0.102E+06 0.584E+00 0.606E+03 0.125E-01 0.216E+06 0.182E-03
0.347E+01 0.500E-06 0.614E+01 -.936E-02 0.102E+06 0.584E+00 0.606E+03 0.124E-01 0.216E+06 0.182E-03
0.348E+01 0.500E-06 0.614E+01 0.323E-01 0.102E+06 0.584E+00 0.606E+03 0.125E-01 0.216E+06 0.182E-03
0.349E+01 0.500E-06 0.615E+01 0.660E-01 0.102E+06 0.584E+00 0.606E+03 0.125E-01 0.216E+06 0.182E-03
0.351E+01 0.500E-06 0.615E+01 0.100E+00 0.102E+06 0.584E+00 0.606E+03 0.125E-01 0.216E+06 0.182E-03
0.352E+01 0.500E-06 0.615E+01 0.137E+00 0.102E+06 0.584E+00 0.606E+03 0.125E-01 0.216E+06 0.182E-03
0.353E+01 0.500E-06 0.616E+01 0.178E+00 0.102E+06 0.585E+00 0.607E+03 0.125E-01 0.216E+06 0.182E-03
0.354E+01 0.500E-06 0.617E+01 0.222E+00 0.102E+06 0.585E+00 0.607E+03 0.125E-01 0.216E+06 0.182E-03
0.356E+01 0.500E-06 0.618E+01 0.267E+00 0.102E+06 0.586E+00 0.607E+03 0.125E-01 0.216E+06 0.182E-03
0.357E+01 0.500E-06 0.619E+01 0.310E+00 0.102E+06 0.586E+00 0.607E+03 0.125E-01 0.216E+06 0.182E-03
0.358E+01 0.500E-06 0.620E+01 0.348E+00 0.102E+06 0.587E+00 0.608E+03 0.126E-01 0.216E+06 0.182E-03
0.359E+01 0.500E-06 0.621E+01 0.380E+00 0.103E+06 0.588E+00 0.608E+03 0.126E-01 0.216E+06 0.183E-03
0.361E+01 0.500E-06 0.622E+01 0.391E+00 0.103E+06 0.589E+00 0.608E+03 0.126E-01 0.216E+06 0.183E-03
0.362E+01 0.500E-06 0.624E+01 0.381E+00 0.103E+06 0.590E+00 0.609E+03 0.126E-01 0.216E+06 0.183E-03
0.363E+01 0.500E-06 0.625E+01 0.351E+00 0.103E+06 0.591E+00 0.609E+03 0.127E-01 0.216E+06 0.183E-03
0.364E+01 0.500E-06 0.626E+01 0.305E+00 0.104E+06 0.592E+00 0.610E+03 0.127E-01 0.216E+06 0.183E-03
0.366E+01 0.500E-06 0.627E+01 0.254E+00 0.104E+06 0.593E+00 0.610E+03 0.127E-01 0.216E+06 0.183E-03
0.367E+01 0.500E-06 0.628E+01 0.204E+00 0.104E+06 0.594E+00 0.610E+03 0.127E-01 0.216E+06 0.183E-03
0.368E+01 0.500E-06 0.629E+01 0.159E+00 0.104E+06 0.594E+00 0.610E+03 0.127E-01 0.216E+06 0.183E-03
0.369E+01 0.500E-06 0.630E+01 0.123E+00 0.104E+06 0.595E+00 0.611E+03 0.127E-01 0.216E+06 0.183E-03
0.371E+01 0.500E-06 0.630E+01 0.937E-01 0.104E+06 0.595E+00 0.611E+03 0.127E-01 0.216E+06 0.183E-03
0.372E+01 0.500E-06 0.630E+01 0.712E-01 0.104E+06 0.595E+00 0.611E+03 0.127E-01 0.216E+06 0.183E-03