 title="contour"
 variables="x","y","u","v",
 "p","den","T","mach","entropy","mu"
 zone i=         400  j=         100  f=point
0.625E-02 0.500E-06 0.100E+04 0.159E-16 0.101E+06 0.706E+01 0.500E+02 0.706E+01 0.657E+04 0.193E-04
0.188E-01 0.500E-06 0.100E+04 0.159E-16 0.101E+06 0.706E+01 0.500E+02 0.706E+01 0.657E+04 0.193E-04
0.312E-01 0.500E-06 0.100E+04 0.304E-16 0.101E+06 0.706E+01 0.500E+02 0.706E+01 0.657E+04 0.193E-04
0.437E-01 0.500E-06 0.100E+04 0.304E-16 0.101E+06 0.706E+01 0.500E+02 0.706E+01 0.657E+04 0.193E-04
0.563E-01 0.500E-06 0.100E+04 0.304E-16 0.101E+06 0.706E+01 0.500E+02 0.706E+01 0.657E+04 0.193E-04
0.688E-01 0.500E-06 0.100E+04 0.304E-16 0.101E+06 0.706E+01 0.500E+02 0.706E+01 0.657E+04 0.193E-04
0.812E-01 0.500E-06 0.100E+04 0.304E-16 0.101E+06 0.706E+01 0.500E+02 0.706E+01 0.657E+04 0.193E-04
0.938E-01 0.500E-06 0.100E+04 0.159E-16 0.101E+06 0.706E+01 0.500E+02 0.706E+01 0.657E+04 0.193E-04
0.106E+00 0.500E-06 0.100E+04 0.304E-16 0.101E+06 0.706E+01 0.500E+02 0.706E+01 0.657E+04 0.193E-04
0.119E+00 0.500E-06 0.100E+04 0.304E-16 0.101E+06 0.706E+01 0.500E+02 0.706E+01 0.657E+04 0.193E-04
0.131E+00 0.500E-06 0.100E+04 0.159E-16 0.101E+06 0.706E+01 0.500E+02 0.706E+01 0.657E+04 0.193E-04
0.144E+00 0.500E-06 0.100E+04 -.987E-17 0.101E+06 0.706E+01 0.500E+02 0.706E+01 0.657E+04 0.193E-04
0.156E+00 0.500E-06 0.100E+04 0.159E-16 0.101E+06 0.706E+01 0.500E+02 0.706E+01 0.657E+04 0.193E-04
0.169E+00 0.500E-06 0.100E+04 -.987E-17 0.101E+06 0.706E+01 0.500E+02 0.706E+01 0.657E+04 0.193E-04
0.181E+00 0.500E-06 0.100E+04 0.159E-16 0.101E+06 0.706E+01 0.500E+02 0.706E+01 0.657E+04 0.193E-04
0.194E+00 0.500E-06 0.100E+04 0.159E-16 0.101E+06 0.706E+01 0.500E+02 0.706E+01 0.657E+04 0.193E-04
0.206E+00 0.500E-06 0.100E+04 -.987E-17 0.101E+06 0.706E+01 0.500E+02 0.706E+01 0.657E+04 0.193E-04
0.219E+00 0.500E-06 0.100E+04 0.159E-16 0.101E+06 0.706E+01 0.500E+02 0.706E+01 0.657E+04 0.193E-04
0.231E+00 0.500E-06 0.100E+04 -.987E-17 0.101E+06 0.706E+01 0.500E+02 0.706E+01 0.657E+04 0.193E-04
0.244E+00 0.500E-06 0.100E+04 0.159E-16 0.101E+06 0.706E+01 0.500E+02 0.706E+01 0.657E+04 0.193E-04
0.256E+00 0.500E-06 0.100E+04 0.159E-16 0.101E+06 0.706E+01 0.500E+02 0.706E+01 0.657E+04 0.193E-04
0.269E+00 0.500E-06 0.100E+04 0.159E-16 0.101E+06 0.706E+01 0.500E+02 0.706E+01 0.657E+04 0.193E-04
0.281E+00 0.500E-06 0.100E+04 0.159E-16 0.101E+06 0.706E+01 0.500E+02 0.706E+01 0.657E+04 0.193E-04
0.294E+00 0.500E-06 0.100E+04 0.159E-16 0.101E+06 0.706E+01 0.500E+02 0.706E+01 0.657E+04 0.193E-04
0.306E+00 0.500E-06 0.100E+04 0.159E-16 0.101E+06 0.706E+01 0.500E+02 0.706E+01 0.657E+04 0.193E-04
0.319E+00 0.500E-06 0.100E+04 0.159E-16 0.101E+06 0.706E+01 0.500E+02 0.706E+01 0.657E+04 0.193E-04
0.331E+00 0.500E-06 0.100E+04 0.159E-16 0.101E+06 0.706E+01 0.500E+02 0.706E+01 0.657E+04 0.193E-04
0.344E+00 0.500E-06 0.100E+04 0.159E-16 0.101E+06 0.706E+01 0.500E+02 0.706E+01 0.657E+04 0.193E-04
0.356E+00 0.500E-06 0.100E+04 0.159E-16 0.101E+06 0.706E+01 0.500E+02 0.706E+01 0.657E+04 0.193E-04
0.369E+00 0.500E-06 0.100E+04 0.159E-16 0.101E+06 0.706E+01 0.500E+02 0.706E+01 0.657E+04 0.193E-04
0.381E+00 0.500E-06 0.100E+04 0.159E-16 0.101E+06 0.706E+01 0.500E+02 0.706E+01 0.657E+04 0.193E-04
0.394E+00 0.500E-06 0.100E+04 0.159E-16 0.101E+06 0.706E+01 0.500E+02 0.706E+01 0.657E+04 0.193E-04
0.406E+00 0.500E-06 0.100E+04 0.159E-16 0.101E+06 0.706E+01 0.500E+02 0.706E+01 0.657E+04 0.193E-04
0.419E+00 0.500E-06 0.100E+04 0.159E-16 0.101E+06 0.706E+01 0.500E+02 0.706E+01 0.657E+04 0.193E-04
0.431E+00 0.500E-06 0.100E+04 0.159E-16 0.101E+06 0.706E+01 0.500E+02 0.706E+01 0.657E+04 0.193E-04
0.444E+00 0.500E-06 0.100E+04 0.159E-16 0.101E+06 0.706E+01 0.500E+02 0.706E+01 0.657E+04 0.193E-04
0.456E+00 0.500E-06 0.100E+04 0.159E-16 0.101E+06 0.706E+01 0.500E+02 0.706E+01 0.657E+04 0.193E-04
0.469E+00 0.500E-06 0.100E+04 0.159E-16 0.101E+06 0.706E+01 0.500E+02 0.706E+01 0.657E+04 0.193E-04
0.481E+00 0.500E-06 0.100E+04 0.159E-16 0.101E+06 0.706E+01 0.500E+02 0.706E+01 0.657E+04 0.193E-04
0.494E+00 0.500E-06 0.100E+04 0.159E-16 0.101E+06 0.706E+01 0.500E+02 0.706E+01 0.657E+04 0.193E-04
0.506E+00 0.500E-06 0.100E+04 0.159E-16 0.101E+06 0.706E+01 0.500E+02 0.706E+01 0.657E+04 0.193E-04
0.519E+00 0.500E-06 0.100E+04 -.987E-17 0.101E+06 0.706E+01 0.500E+02 0.706E+01 0.657E+04 0.193E-04
0.531E+00 0.500E-06 0.100E+04 0.159E-16 0.101E+06 0.706E+01 0.500E+02 0.706E+01 0.657E+04 0.193E-04
0.544E+00 0.500E-06 0.100E+04 -.987E-17 0.101E+06 0.706E+01 0.500E+02 0.706E+01 0.657E+04 0.193E-04
0.556E+00 0.500E-06 0.100E+04 0.159E-16 0.101E+06 0.706E+01 0.500E+02 0.706E+01 0.657E+04 0.193E-04
0.569E+00 0.500E-06 0.100E+04 0.159E-16 0.101E+06 0.706E+01 0.500E+02 0.706E+01 0.657E+04 0.193E-04
0.581E+00 0.500E-06 0.100E+04 -.987E-17 0.101E+06 0.706E+01 0.500E+02 0.706E+01 0.657E+04 0.193E-04
0.594E+00 0.500E-06 0.100E+04 0.159E-16 0.101E+06 0.706E+01 0.500E+02 0.706E+01 0.657E+04 0.193E-04
0.606E+00 0.500E-06 0.100E+04 -.987E-17 0.101E+06 0.706E+01 0.500E+02 0.706E+01 0.657E+04 0.193E-04
0.619E+00 0.500E-06 0.100E+04 0.159E-16 0.101E+06 0.706E+01 0.500E+02 0.706E+01 0.657E+04 0.193E-04
0.631E+00 0.500E-06 0.100E+04 0.159E-16 0.101E+06 0.706E+01 0.500E+02 0.706E+01 0.657E+04 0.193E-04
0.644E+00 0.500E-06 0.100E+04 -.987E-17 0.101E+06 0.706E+01 0.500E+02 0.706E+01 0.657E+04 0.193E-04
0.656E+00 0.500E-06 0.100E+04 0.159E-16 0.101E+06 0.706E+01 0.500E+02 0.706E+01 0.657E+04 0.193E-04
0.669E+00 0.500E-06 0.100E+04 -.987E-17 0.101E+06 0.706E+01 0.500E+02 0.706E+01 0.657E+04 0.193E-04
0.681E+00 0.500E-06 0.100E+04 0.159E-16 0.101E+06 0.706E+01 0.500E+02 0.706E+01 0.657E+04 0.193E-04
0.694E+00 0.500E-06 0.100E+04 0.159E-16 0.101E+06 0.706E+01 0.500E+02 0.706E+01 0.657E+04 0.193E-04
0.706E+00 0.500E-06 0.100E+04 -.987E-17 0.101E+06 0.706E+01 0.500E+02 0.706E+01 0.657E+04 0.193E-04
0.719E+00 0.500E-06 0.100E+04 0.159E-16 0.101E+06 0.706E+01 0.500E+02 0.706E+01 0.657E+04 0.193E-04
0.731E+00 0.500E-06 0.100E+04 -.987E-17 0.101E+06 0.706E+01 0.500E+02 0.706E+01 0.657E+04 0.193E-04
0.744E+00 0.500E-06 0.100E+04 0.159E-16 0.101E+06 0.706E+01 0.500E+02 0.706E+01 0.657E+04 0.193E-04
0.756E+00 0.500E-06 0.100E+04 0.159E-16 0.101E+06 0.706E+01 0.500E+02 0.706E+01 0.657E+04 0.193E-04
0.769E+00 0.500E-06 0.100E+04 -.987E-17 0.101E+06 0.706E+01 0.500E+02 0.706E+01 0.657E+04 0.193E-04
0.781E+00 0.500E-06 0.100E+04 0.159E-16 0.101E+06 0.706E+01 0.500E+02 0.706E+01 0.657E+04 0.193E-04
0.794E+00 0.500E-06 0.100E+04 -.987E-17 0.101E+06 0.706E+01 0.500E+02 0.706E+01 0.657E+04 0.193E-04
0.806E+00 0.500E-06 0.100E+04 0.159E-16 0.101E+06 0.706E+01 0.500E+02 0.706E+01 0.657E+04 0.193E-04
0.819E+00 0.500E-06 0.100E+04 0.159E-16 0.101E+06 0.706E+01 0.500E+02 0.706E+01 0.657E+04 0.193E-04
0.831E+00 0.500E-06 0.100E+04 -.987E-17 0.101E+06 0.706E+01 0.500E+02 0.706E+01 0.657E+04 0.193E-04
0.844E+00 0.500E-06 0.100E+04 0.159E-16 0.101E+06 0.706E+01 0.500E+02 0.706E+01 0.657E+04 0.193E-04
0.856E+00 0.500E-06 0.100E+04 -.987E-17 0.101E+06 0.706E+01 0.500E+02 0.706E+01 0.657E+04 0.193E-04
0.869E+00 0.500E-06 0.100E+04 0.159E-16 0.101E+06 0.706E+01 0.500E+02 0.706E+01 0.657E+04 0.193E-04
0.881E+00 0.500E-06 0.100E+04 0.159E-16 0.101E+06 0.706E+01 0.500E+02 0.706E+01 0.657E+04 0.193E-04
0.894E+00 0.500E-06 0.100E+04 -.987E-17 0.101E+06 0.706E+01 0.500E+02 0.706E+01 0.657E+04 0.193E-04
0.906E+00 0.500E-06 0.100E+04 0.159E-16 0.101E+06 0.706E+01 0.500E+02 0.706E+01 0.657E+04 0.193E-04
0.919E+00 0.500E-06 0.100E+04 -.987E-17 0.101E+06 0.706E+01 0.500E+02 0.706E+01 0.657E+04 0.193E-04
0.931E+00 0.500E-06 0.100E+04 0.159E-16 0.101E+06 0.706E+01 0.500E+02 0.706E+01 0.657E+04 0.193E-04
0.944E+00 0.500E-06 0.100E+04 0.159E-16 0.101E+06 0.706E+01 0.500E+02 0.706E+01 0.657E+04 0.193E-04
0.956E+00 0.500E-06 0.100E+04 -.987E-17 0.101E+06 0.706E+01 0.500E+02 0.706E+01 0.657E+04 0.193E-04
0.969E+00 0.500E-06 0.100E+04 0.452E-14 0.101E+06 0.706E+01 0.500E+02 0.706E+01 0.657E+04 0.193E-04
0.981E+00 0.500E-06 0.100E+04 0.413E-09 0.101E+06 0.706E+01 0.500E+02 0.706E+01 0.657E+04 0.193E-04
0.994E+00 0.500E-06 0.100E+04 -.746E-02 0.101E+06 0.706E+01 0.500E+02 0.706E+01 0.657E+04 0.193E-04
0.101E+01 0.500E-06 0.200E+02 0.478E+00 0.126E+06 0.622E+00 0.709E+03 0.375E-01 0.246E+06 0.202E-03
0.102E+01 0.500E-06 0.432E+01 -.696E-02 0.108E+06 0.616E+00 0.614E+03 0.869E-02 0.214E+06 0.184E-03
0.103E+01 0.500E-06 0.383E+01 0.581E-02 0.104E+06 0.605E+00 0.601E+03 0.779E-02 0.211E+06 0.181E-03
0.104E+01 0.500E-06 0.377E+01 -.352E-01 0.104E+06 0.602E+00 0.600E+03 0.768E-02 0.211E+06 0.181E-03
0.106E+01 0.500E-06 0.375E+01 0.255E-01 0.103E+06 0.601E+00 0.599E+03 0.765E-02 0.211E+06 0.181E-03
0.107E+01 0.500E-06 0.375E+01 -.636E-02 0.103E+06 0.601E+00 0.599E+03 0.764E-02 0.211E+06 0.181E-03
0.108E+01 0.500E-06 0.375E+01 -.176E-01 0.103E+06 0.601E+00 0.599E+03 0.764E-02 0.211E+06 0.181E-03
0.109E+01 0.500E-06 0.375E+01 -.143E-03 0.103E+06 0.600E+00 0.599E+03 0.763E-02 0.211E+06 0.181E-03
0.111E+01 0.500E-06 0.375E+01 0.471E-03 0.103E+06 0.600E+00 0.599E+03 0.763E-02 0.211E+06 0.181E-03
0.112E+01 0.500E-06 0.375E+01 -.675E-02 0.103E+06 0.600E+00 0.599E+03 0.763E-02 0.211E+06 0.181E-03
0.113E+01 0.500E-06 0.375E+01 -.610E-02 0.103E+06 0.600E+00 0.599E+03 0.763E-02 0.211E+06 0.181E-03
0.114E+01 0.500E-06 0.374E+01 -.162E-02 0.103E+06 0.600E+00 0.599E+03 0.763E-02 0.211E+06 0.181E-03
0.116E+01 0.500E-06 0.374E+01 -.133E-02 0.103E+06 0.600E+00 0.599E+03 0.763E-02 0.211E+06 0.181E-03
0.117E+01 0.500E-06 0.374E+01 -.491E-02 0.103E+06 0.600E+00 0.599E+03 0.763E-02 0.211E+06 0.181E-03
0.118E+01 0.500E-06 0.374E+01 -.672E-02 0.103E+06 0.600E+00 0.599E+03 0.763E-02 0.211E+06 0.181E-03
0.119E+01 0.500E-06 0.374E+01 -.548E-02 0.103E+06 0.600E+00 0.599E+03 0.763E-02 0.211E+06 0.181E-03
0.121E+01 0.500E-06 0.374E+01 -.346E-02 0.103E+06 0.600E+00 0.599E+03 0.763E-02 0.211E+06 0.181E-03
0.122E+01 0.500E-06 0.374E+01 -.251E-02 0.103E+06 0.600E+00 0.599E+03 0.763E-02 0.211E+06 0.181E-03
0.123E+01 0.500E-06 0.374E+01 -.268E-02 0.103E+06 0.600E+00 0.599E+03 0.763E-02 0.211E+06 0.181E-03
0.124E+01 0.500E-06 0.374E+01 -.292E-02 0.103E+06 0.600E+00 0.599E+03 0.763E-02 0.211E+06 0.181E-03
0.126E+01 0.500E-06 0.374E+01 -.271E-02 0.103E+06 0.600E+00 0.599E+03 0.763E-02 0.211E+06 0.181E-03
0.127E+01 0.500E-06 0.374E+01 -.244E-02 0.103E+06 0.600E+00 0.599E+03 0.763E-02 0.211E+06 0.181E-03
0.128E+01 0.500E-06 0.374E+01 -.239E-02 0.103E+06 0.600E+00 0.599E+03 0.763E-02 0.211E+06 0.181E-03
0.129E+01 0.500E-06 0.374E+01 -.278E-02 0.103E+06 0.600E+00 0.599E+03 0.763E-02 0.211E+06 0.181E-03
0.131E+01 0.500E-06 0.374E+01 -.420E-02 0.103E+06 0.600E+00 0.599E+03 0.763E-02 0.211E+06 0.181E-03
0.132E+01 0.500E-06 0.374E+01 -.527E-02 0.103E+06 0.600E+00 0.599E+03 0.763E-02 0.211E+06 0.181E-03
0.133E+01 0.500E-06 0.374E+01 -.508E-02 0.103E+06 0.600E+00 0.599E+03 0.763E-02 0.211E+06 0.181E-03
0.134E+01 0.500E-06 0.374E+01 -.380E-02 0.103E+06 0.600E+00 0.599E+03 0.763E-02 0.211E+06 0.181E-03
0.136E+01 0.500E-06 0.374E+01 -.240E-02 0.103E+06 0.600E+00 0.599E+03 0.763E-02 0.211E+06 0.181E-03
0.137E+01 0.500E-06 0.374E+01 -.633E-03 0.103E+06 0.600E+00 0.599E+03 0.763E-02 0.211E+06 0.181E-03
0.138E+01 0.500E-06 0.374E+01 0.865E-03 0.103E+06 0.600E+00 0.599E+03 0.763E-02 0.211E+06 0.181E-03
0.139E+01 0.500E-06 0.374E+01 0.153E-02 0.103E+06 0.600E+00 0.599E+03 0.763E-02 0.211E+06 0.181E-03
0.141E+01 0.500E-06 0.374E+01 0.160E-02 0.103E+06 0.600E+00 0.599E+03 0.763E-02 0.211E+06 0.181E-03
0.142E+01 0.500E-06 0.374E+01 0.137E-02 0.103E+06 0.600E+00 0.599E+03 0.763E-02 0.211E+06 0.181E-03
0.143E+01 0.500E-06 0.374E+01 0.669E-03 0.103E+06 0.600E+00 0.599E+03 0.763E-02 0.211E+06 0.181E-03
0.144E+01 0.500E-06 0.374E+01 -.700E-03 0.103E+06 0.600E+00 0.599E+03 0.763E-02 0.211E+06 0.181E-03
0.146E+01 0.500E-06 0.374E+01 -.254E-02 0.103E+06 0.600E+00 0.599E+03 0.763E-02 0.211E+06 0.181E-03
0.147E+01 0.500E-06 0.374E+01 -.429E-02 0.103E+06 0.600E+00 0.599E+03 0.763E-02 0.211E+06 0.181E-03
0.148E+01 0.500E-06 0.374E+01 -.530E-02 0.103E+06 0.600E+00 0.599E+03 0.763E-02 0.211E+06 0.181E-03
0.149E+01 0.500E-06 0.374E+01 -.562E-02 0.103E+06 0.600E+00 0.599E+03 0.763E-02 0.211E+06 0.181E-03
0.151E+01 0.500E-06 0.374E+01 -.538E-02 0.103E+06 0.600E+00 0.599E+03 0.763E-02 0.211E+06 0.181E-03
0.152E+01 0.500E-06 0.374E+01 -.497E-02 0.103E+06 0.600E+00 0.599E+03 0.763E-02 0.211E+06 0.181E-03
0.153E+01 0.500E-06 0.374E+01 -.448E-02 0.103E+06 0.600E+00 0.599E+03 0.763E-02 0.211E+06 0.181E-03
0.154E+01 0.500E-06 0.374E+01 -.429E-02 0.103E+06 0.600E+00 0.599E+03 0.763E-02 0.211E+06 0.181E-03
0.156E+01 0.500E-06 0.374E+01 -.410E-02 0.103E+06 0.600E+00 0.599E+03 0.763E-02 0.211E+06 0.181E-03
0.157E+01 0.500E-06 0.374E+01 -.391E-02 0.103E+06 0.600E+00 0.599E+03 0.763E-02 0.211E+06 0.181E-03
0.158E+01 0.500E-06 0.374E+01 -.352E-02 0.103E+06 0.600E+00 0.599E+03 0.763E-02 0.211E+06 0.181E-03
0.159E+01 0.500E-06 0.374E+01 -.313E-02 0.103E+06 0.600E+00 0.599E+03 0.763E-02 0.211E+06 0.181E-03
0.161E+01 0.500E-06 0.374E+01 -.279E-02 0.103E+06 0.600E+00 0.599E+03 0.763E-02 0.211E+06 0.181E-03
0.162E+01 0.500E-06 0.374E+01 -.265E-02 0.103E+06 0.600E+00 0.599E+03 0.763E-02 0.211E+06 0.181E-03
0.163E+01 0.500E-06 0.374E+01 -.330E-02 0.103E+06 0.600E+00 0.599E+03 0.763E-02 0.211E+06 0.181E-03
0.164E+01 0.500E-06 0.374E+01 -.432E-02 0.103E+06 0.600E+00 0.599E+03 0.763E-02 0.211E+06 0.181E-03
0.166E+01 0.500E-06 0.374E+01 -.560E-02 0.103E+06 0.600E+00 0.599E+03 0.763E-02 0.211E+06 0.181E-03
0.167E+01 0.500E-06 0.374E+01 -.672E-02 0.103E+06 0.600E+00 0.599E+03 0.763E-02 0.211E+06 0.181E-03
0.168E+01 0.500E-06 0.374E+01 -.728E-02 0.103E+06 0.600E+00 0.599E+03 0.763E-02 0.211E+06 0.181E-03
0.169E+01 0.500E-06 0.374E+01 -.728E-02 0.103E+06 0.600E+00 0.599E+03 0.763E-02 0.211E+06 0.181E-03
0.171E+01 0.500E-06 0.374E+01 -.673E-02 0.103E+06 0.600E+00 0.599E+03 0.763E-02 0.211E+06 0.181E-03
0.172E+01 0.500E-06 0.374E+01 -.636E-02 0.103E+06 0.600E+00 0.599E+03 0.763E-02 0.211E+06 0.181E-03
0.173E+01 0.500E-06 0.374E+01 -.645E-02 0.103E+06 0.600E+00 0.599E+03 0.763E-02 0.211E+06 0.181E-03
0.174E+01 0.500E-06 0.374E+01 -.673E-02 0.103E+06 0.600E+00 0.599E+03 0.763E-02 0.211E+06 0.181E-03
0.176E+01 0.500E-06 0.374E+01 -.705E-02 0.103E+06 0.600E+00 0.599E+03 0.763E-02 0.211E+06 0.181E-03
0.177E+01 0.500E-06 0.374E+01 -.751E-02 0.103E+06 0.600E+00 0.599E+03 0.763E-02 0.211E+06 0.181E-03
0.178E+01 0.500E-06 0.374E+01 -.786E-02 0.103E+06 0.600E+00 0.599E+03 0.763E-02 0.211E+06 0.181E-03
0.179E+01 0.500E-06 0.374E+01 -.776E-02 0.103E+06 0.600E+00 0.599E+03 0.763E-02 0.211E+06 0.181E-03
0.181E+01 0.500E-06 0.374E+01 -.695E-02 0.103E+06 0.600E+00 0.599E+03 0.763E-02 0.211E+06 0.181E-03
0.182E+01 0.500E-06 0.374E+01 -.617E-02 0.103E+06 0.600E+00 0.599E+03 0.763E-02 0.211E+06 0.181E-03
0.183E+01 0.500E-06 0.374E+01 -.532E-02 0.103E+06 0.600E+00 0.599E+03 0.763E-02 0.211E+06 0.181E-03
0.184E+01 0.500E-06 0.375E+01 -.449E-02 0.103E+06 0.600E+00 0.599E+03 0.763E-02 0.211E+06 0.181E-03
0.186E+01 0.500E-06 0.375E+01 -.382E-02 0.103E+06 0.600E+00 0.599E+03 0.763E-02 0.211E+06 0.181E-03
0.187E+01 0.500E-06 0.375E+01 -.338E-02 0.103E+06 0.600E+00 0.599E+03 0.764E-02 0.211E+06 0.181E-03
0.188E+01 0.500E-06 0.375E+01 -.321E-02 0.103E+06 0.600E+00 0.599E+03 0.764E-02 0.211E+06 0.181E-03
0.189E+01 0.500E-06 0.375E+01 -.336E-02 0.103E+06 0.600E+00 0.599E+03 0.764E-02 0.211E+06 0.181E-03
0.191E+01 0.500E-06 0.375E+01 -.353E-02 0.103E+06 0.600E+00 0.599E+03 0.764E-02 0.211E+06 0.181E-03
0.192E+01 0.500E-06 0.375E+01 -.353E-02 0.103E+06 0.600E+00 0.599E+03 0.764E-02 0.211E+06 0.181E-03
0.193E+01 0.500E-06 0.375E+01 -.335E-02 0.103E+06 0.600E+00 0.599E+03 0.764E-02 0.211E+06 0.181E-03
0.194E+01 0.500E-06 0.375E+01 -.280E-02 0.103E+06 0.600E+00 0.599E+03 0.764E-02 0.211E+06 0.181E-03
0.196E+01 0.500E-06 0.375E+01 -.219E-02 0.103E+06 0.600E+00 0.599E+03 0.764E-02 0.211E+06 0.181E-03
0.197E+01 0.500E-06 0.375E+01 -.150E-02 0.103E+06 0.600E+00 0.599E+03 0.764E-02 0.211E+06 0.181E-03
0.198E+01 0.500E-06 0.375E+01 -.777E-03 0.103E+06 0.600E+00 0.599E+03 0.764E-02 0.211E+06 0.181E-03
0.199E+01 0.500E-06 0.375E+01 -.210E-03 0.103E+06 0.600E+00 0.599E+03 0.764E-02 0.211E+06 0.181E-03
0.201E+01 0.500E-06 0.375E+01 0.135E-04 0.103E+06 0.600E+00 0.599E+03 0.764E-02 0.211E+06 0.181E-03
0.202E+01 0.500E-06 0.375E+01 -.213E-03 0.103E+06 0.600E+00 0.599E+03 0.764E-02 0.211E+06 0.181E-03
0.203E+01 0.500E-06 0.375E+01 -.810E-03 0.103E+06 0.600E+00 0.599E+03 0.764E-02 0.211E+06 0.181E-03
0.204E+01 0.500E-06 0.375E+01 -.133E-02 0.103E+06 0.600E+00 0.599E+03 0.764E-02 0.211E+06 0.181E-03
0.206E+01 0.500E-06 0.375E+01 -.190E-02 0.103E+06 0.600E+00 0.599E+03 0.764E-02 0.211E+06 0.181E-03
0.207E+01 0.500E-06 0.375E+01 -.237E-02 0.103E+06 0.600E+00 0.599E+03 0.764E-02 0.211E+06 0.181E-03
0.208E+01 0.500E-06 0.375E+01 -.260E-02 0.103E+06 0.600E+00 0.599E+03 0.764E-02 0.211E+06 0.181E-03
0.209E+01 0.500E-06 0.375E+01 -.253E-02 0.103E+06 0.600E+00 0.599E+03 0.764E-02 0.211E+06 0.181E-03
0.211E+01 0.500E-06 0.375E+01 -.217E-02 0.103E+06 0.600E+00 0.599E+03 0.764E-02 0.211E+06 0.181E-03
0.212E+01 0.500E-06 0.375E+01 -.169E-02 0.103E+06 0.600E+00 0.599E+03 0.764E-02 0.211E+06 0.181E-03
0.213E+01 0.500E-06 0.375E+01 -.125E-02 0.103E+06 0.600E+00 0.599E+03 0.764E-02 0.211E+06 0.181E-03
0.214E+01 0.500E-06 0.375E+01 -.983E-03 0.103E+06 0.600E+00 0.599E+03 0.764E-02 0.211E+06 0.181E-03
0.216E+01 0.500E-06 0.375E+01 -.975E-03 0.103E+06 0.600E+00 0.599E+03 0.764E-02 0.211E+06 0.181E-03
0.217E+01 0.500E-06 0.375E+01 -.118E-02 0.103E+06 0.600E+00 0.599E+03 0.764E-02 0.211E+06 0.181E-03
0.218E+01 0.500E-06 0.375E+01 -.167E-02 0.103E+06 0.600E+00 0.599E+03 0.764E-02 0.211E+06 0.181E-03
0.219E+01 0.500E-06 0.375E+01 -.233E-02 0.103E+06 0.600E+00 0.599E+03 0.764E-02 0.211E+06 0.181E-03
0.221E+01 0.500E-06 0.375E+01 -.290E-02 0.103E+06 0.600E+00 0.599E+03 0.764E-02 0.211E+06 0.181E-03
0.222E+01 0.500E-06 0.375E+01 -.340E-02 0.103E+06 0.600E+00 0.599E+03 0.764E-02 0.211E+06 0.181E-03
0.223E+01 0.500E-06 0.375E+01 -.370E-02 0.103E+06 0.600E+00 0.599E+03 0.764E-02 0.211E+06 0.181E-03
0.224E+01 0.500E-06 0.375E+01 -.383E-02 0.103E+06 0.600E+00 0.599E+03 0.764E-02 0.211E+06 0.181E-03
0.226E+01 0.500E-06 0.375E+01 -.377E-02 0.103E+06 0.600E+00 0.599E+03 0.764E-02 0.211E+06 0.181E-03
0.227E+01 0.500E-06 0.375E+01 -.359E-02 0.103E+06 0.600E+00 0.599E+03 0.764E-02 0.211E+06 0.181E-03
0.228E+01 0.500E-06 0.375E+01 -.331E-02 0.103E+06 0.600E+00 0.599E+03 0.764E-02 0.211E+06 0.181E-03
0.229E+01 0.500E-06 0.375E+01 -.298E-02 0.103E+06 0.600E+00 0.599E+03 0.764E-02 0.211E+06 0.181E-03
0.231E+01 0.500E-06 0.375E+01 -.273E-02 0.103E+06 0.600E+00 0.599E+03 0.764E-02 0.211E+06 0.181E-03
0.232E+01 0.500E-06 0.375E+01 -.270E-02 0.103E+06 0.600E+00 0.599E+03 0.764E-02 0.211E+06 0.181E-03
0.233E+01 0.500E-06 0.375E+01 -.285E-02 0.103E+06 0.600E+00 0.599E+03 0.764E-02 0.211E+06 0.181E-03
0.234E+01 0.500E-06 0.375E+01 -.320E-02 0.103E+06 0.600E+00 0.599E+03 0.764E-02 0.211E+06 0.181E-03
0.236E+01 0.500E-06 0.375E+01 -.372E-02 0.103E+06 0.600E+00 0.599E+03 0.764E-02 0.211E+06 0.181E-03
0.237E+01 0.500E-06 0.375E+01 -.427E-02 0.103E+06 0.600E+00 0.599E+03 0.764E-02 0.211E+06 0.181E-03
0.238E+01 0.500E-06 0.375E+01 -.468E-02 0.103E+06 0.600E+00 0.599E+03 0.764E-02 0.211E+06 0.181E-03
0.239E+01 0.500E-06 0.375E+01 -.497E-02 0.103E+06 0.600E+00 0.599E+03 0.764E-02 0.211E+06 0.181E-03
0.241E+01 0.500E-06 0.375E+01 -.508E-02 0.103E+06 0.600E+00 0.599E+03 0.764E-02 0.211E+06 0.181E-03
0.242E+01 0.500E-06 0.375E+01 -.493E-02 0.103E+06 0.600E+00 0.599E+03 0.764E-02 0.211E+06 0.181E-03
0.243E+01 0.500E-06 0.375E+01 -.450E-02 0.103E+06 0.600E+00 0.599E+03 0.764E-02 0.211E+06 0.181E-03
0.244E+01 0.500E-06 0.375E+01 -.390E-02 0.103E+06 0.600E+00 0.599E+03 0.764E-02 0.211E+06 0.181E-03
0.246E+01 0.500E-06 0.375E+01 -.323E-02 0.103E+06 0.600E+00 0.599E+03 0.764E-02 0.211E+06 0.181E-03
0.247E+01 0.500E-06 0.375E+01 -.259E-02 0.103E+06 0.600E+00 0.599E+03 0.764E-02 0.211E+06 0.181E-03
0.248E+01 0.500E-06 0.375E+01 -.207E-02 0.103E+06 0.600E+00 0.599E+03 0.764E-02 0.211E+06 0.181E-03
0.249E+01 0.500E-06 0.375E+01 -.174E-02 0.103E+06 0.600E+00 0.599E+03 0.764E-02 0.211E+06 0.181E-03
0.251E+01 0.500E-06 0.375E+01 -.161E-02 0.103E+06 0.600E+00 0.599E+03 0.764E-02 0.211E+06 0.181E-03
0.252E+01 0.500E-06 0.375E+01 -.162E-02 0.103E+06 0.600E+00 0.599E+03 0.764E-02 0.211E+06 0.181E-03
0.253E+01 0.500E-06 0.375E+01 -.175E-02 0.103E+06 0.600E+00 0.599E+03 0.764E-02 0.211E+06 0.181E-03
0.254E+01 0.500E-06 0.375E+01 -.196E-02 0.103E+06 0.600E+00 0.599E+03 0.764E-02 0.211E+06 0.181E-03
0.256E+01 0.500E-06 0.375E+01 -.220E-02 0.103E+06 0.600E+00 0.599E+03 0.764E-02 0.211E+06 0.181E-03
0.257E+01 0.500E-06 0.375E+01 -.237E-02 0.103E+06 0.600E+00 0.599E+03 0.764E-02 0.211E+06 0.181E-03
0.258E+01 0.500E-06 0.375E+01 -.254E-02 0.103E+06 0.600E+00 0.599E+03 0.764E-02 0.211E+06 0.181E-03
0.259E+01 0.500E-06 0.375E+01 -.265E-02 0.103E+06 0.600E+00 0.599E+03 0.764E-02 0.211E+06 0.181E-03
0.261E+01 0.500E-06 0.375E+01 -.272E-02 0.103E+06 0.600E+00 0.599E+03 0.764E-02 0.211E+06 0.181E-03
0.262E+01 0.500E-06 0.375E+01 -.276E-02 0.103E+06 0.600E+00 0.599E+03 0.764E-02 0.211E+06 0.181E-03
0.263E+01 0.500E-06 0.375E+01 -.278E-02 0.103E+06 0.600E+00 0.599E+03 0.764E-02 0.211E+06 0.181E-03
0.264E+01 0.500E-06 0.375E+01 -.282E-02 0.103E+06 0.600E+00 0.599E+03 0.764E-02 0.211E+06 0.181E-03
0.266E+01 0.500E-06 0.375E+01 -.286E-02 0.103E+06 0.600E+00 0.599E+03 0.764E-02 0.211E+06 0.181E-03
0.267E+01 0.500E-06 0.375E+01 -.291E-02 0.103E+06 0.600E+00 0.599E+03 0.764E-02 0.211E+06 0.181E-03
0.268E+01 0.500E-06 0.375E+01 -.296E-02 0.103E+06 0.600E+00 0.599E+03 0.764E-02 0.211E+06 0.181E-03
0.269E+01 0.500E-06 0.375E+01 -.301E-02 0.103E+06 0.600E+00 0.599E+03 0.764E-02 0.211E+06 0.181E-03
0.271E+01 0.500E-06 0.375E+01 -.307E-02 0.103E+06 0.600E+00 0.599E+03 0.764E-02 0.211E+06 0.181E-03
0.272E+01 0.500E-06 0.375E+01 -.312E-02 0.103E+06 0.600E+00 0.599E+03 0.764E-02 0.211E+06 0.181E-03
0.273E+01 0.500E-06 0.375E+01 -.317E-02 0.103E+06 0.600E+00 0.599E+03 0.764E-02 0.211E+06 0.181E-03
0.274E+01 0.500E-06 0.375E+01 -.321E-02 0.103E+06 0.600E+00 0.599E+03 0.764E-02 0.211E+06 0.181E-03
0.276E+01 0.500E-06 0.375E+01 -.326E-02 0.103E+06 0.600E+00 0.599E+03 0.764E-02 0.211E+06 0.181E-03
0.277E+01 0.500E-06 0.375E+01 -.330E-02 0.103E+06 0.600E+00 0.599E+03 0.764E-02 0.211E+06 0.181E-03
0.278E+01 0.500E-06 0.375E+01 -.333E-02 0.103E+06 0.600E+00 0.599E+03 0.764E-02 0.211E+06 0.181E-03
0.279E+01 0.500E-06 0.375E+01 -.333E-02 0.103E+06 0.600E+00 0.599E+03 0.764E-02 0.211E+06 0.181E-03
0.281E+01 0.500E-06 0.375E+01 -.332E-02 0.103E+06 0.600E+00 0.599E+03 0.765E-02 0.211E+06 0.181E-03
0.282E+01 0.500E-06 0.375E+01 -.329E-02 0.103E+06 0.600E+00 0.599E+03 0.765E-02 0.211E+06 0.181E-03
0.283E+01 0.500E-06 0.375E+01 -.320E-02 0.103E+06 0.600E+00 0.599E+03 0.765E-02 0.211E+06 0.181E-03
0.284E+01 0.500E-06 0.375E+01 -.309E-02 0.103E+06 0.600E+00 0.599E+03 0.765E-02 0.211E+06 0.181E-03
0.286E+01 0.500E-06 0.375E+01 -.298E-02 0.103E+06 0.600E+00 0.599E+03 0.765E-02 0.211E+06 0.181E-03
0.287E+01 0.500E-06 0.375E+01 -.287E-02 0.103E+06 0.600E+00 0.599E+03 0.765E-02 0.211E+06 0.181E-03
0.288E+01 0.500E-06 0.375E+01 -.277E-02 0.103E+06 0.600E+00 0.599E+03 0.765E-02 0.211E+06 0.181E-03
0.289E+01 0.500E-06 0.375E+01 -.265E-02 0.103E+06 0.600E+00 0.599E+03 0.765E-02 0.211E+06 0.181E-03
0.291E+01 0.500E-06 0.375E+01 -.251E-02 0.103E+06 0.600E+00 0.599E+03 0.765E-02 0.211E+06 0.181E-03
0.292E+01 0.500E-06 0.375E+01 -.235E-02 0.103E+06 0.600E+00 0.599E+03 0.765E-02 0.211E+06 0.181E-03
0.293E+01 0.500E-06 0.375E+01 -.224E-02 0.103E+06 0.600E+00 0.599E+03 0.765E-02 0.211E+06 0.181E-03
0.294E+01 0.500E-06 0.375E+01 -.221E-02 0.103E+06 0.600E+00 0.599E+03 0.765E-02 0.211E+06 0.181E-03
0.296E+01 0.500E-06 0.375E+01 -.228E-02 0.103E+06 0.600E+00 0.599E+03 0.765E-02 0.211E+06 0.181E-03
0.297E+01 0.500E-06 0.375E+01 -.246E-02 0.103E+06 0.600E+00 0.599E+03 0.765E-02 0.211E+06 0.181E-03
0.298E+01 0.500E-06 0.375E+01 -.279E-02 0.103E+06 0.600E+00 0.599E+03 0.765E-02 0.211E+06 0.181E-03
0.299E+01 0.500E-06 0.375E+01 -.308E-02 0.103E+06 0.600E+00 0.599E+03 0.765E-02 0.211E+06 0.181E-03
0.301E+01 0.500E-06 0.375E+01 -.327E-02 0.103E+06 0.600E+00 0.599E+03 0.765E-02 0.211E+06 0.181E-03
0.302E+01 0.500E-06 0.375E+01 -.342E-02 0.103E+06 0.600E+00 0.599E+03 0.765E-02 0.211E+06 0.181E-03
0.303E+01 0.500E-06 0.375E+01 -.362E-02 0.103E+06 0.600E+00 0.599E+03 0.765E-02 0.211E+06 0.181E-03
0.304E+01 0.500E-06 0.375E+01 -.392E-02 0.103E+06 0.600E+00 0.599E+03 0.765E-02 0.211E+06 0.181E-03
0.306E+01 0.500E-06 0.375E+01 -.426E-02 0.103E+06 0.600E+00 0.599E+03 0.765E-02 0.211E+06 0.181E-03
0.307E+01 0.500E-06 0.375E+01 -.451E-02 0.103E+06 0.600E+00 0.599E+03 0.765E-02 0.211E+06 0.181E-03
0.308E+01 0.500E-06 0.375E+01 -.460E-02 0.103E+06 0.600E+00 0.599E+03 0.765E-02 0.211E+06 0.181E-03
0.309E+01 0.500E-06 0.375E+01 -.450E-02 0.103E+06 0.600E+00 0.599E+03 0.765E-02 0.211E+06 0.181E-03
0.311E+01 0.500E-06 0.375E+01 -.419E-02 0.103E+06 0.600E+00 0.599E+03 0.765E-02 0.211E+06 0.181E-03
0.312E+01 0.500E-06 0.375E+01 -.366E-02 0.103E+06 0.600E+00 0.599E+03 0.765E-02 0.211E+06 0.181E-03
0.313E+01 0.500E-06 0.375E+01 -.296E-02 0.103E+06 0.600E+00 0.599E+03 0.765E-02 0.211E+06 0.181E-03
0.314E+01 0.500E-06 0.375E+01 -.223E-02 0.103E+06 0.600E+00 0.599E+03 0.765E-02 0.211E+06 0.181E-03
0.316E+01 0.500E-06 0.375E+01 -.166E-02 0.103E+06 0.600E+00 0.599E+03 0.765E-02 0.211E+06 0.181E-03
0.317E+01 0.500E-06 0.375E+01 -.131E-02 0.103E+06 0.600E+00 0.599E+03 0.765E-02 0.211E+06 0.181E-03
0.318E+01 0.500E-06 0.375E+01 -.114E-02 0.103E+06 0.600E+00 0.599E+03 0.765E-02 0.211E+06 0.181E-03
0.319E+01 0.500E-06 0.375E+01 -.108E-02 0.103E+06 0.600E+00 0.599E+03 0.765E-02 0.211E+06 0.181E-03
0.321E+01 0.500E-06 0.375E+01 -.105E-02 0.103E+06 0.600E+00 0.599E+03 0.765E-02 0.211E+06 0.181E-03
0.322E+01 0.500E-06 0.375E+01 -.104E-02 0.103E+06 0.600E+00 0.599E+03 0.765E-02 0.211E+06 0.181E-03
0.323E+01 0.500E-06 0.375E+01 -.107E-02 0.103E+06 0.600E+00 0.599E+03 0.765E-02 0.211E+06 0.181E-03
0.324E+01 0.500E-06 0.375E+01 -.121E-02 0.103E+06 0.600E+00 0.599E+03 0.765E-02 0.211E+06 0.181E-03
0.326E+01 0.500E-06 0.375E+01 -.154E-02 0.103E+06 0.600E+00 0.599E+03 0.765E-02 0.211E+06 0.181E-03
0.327E+01 0.500E-06 0.375E+01 -.207E-02 0.103E+06 0.600E+00 0.599E+03 0.765E-02 0.211E+06 0.181E-03
0.328E+01 0.500E-06 0.375E+01 -.278E-02 0.103E+06 0.600E+00 0.599E+03 0.765E-02 0.211E+06 0.181E-03
0.329E+01 0.500E-06 0.375E+01 -.360E-02 0.103E+06 0.600E+00 0.599E+03 0.765E-02 0.211E+06 0.181E-03
0.331E+01 0.500E-06 0.375E+01 -.432E-02 0.103E+06 0.600E+00 0.599E+03 0.765E-02 0.211E+06 0.181E-03
0.332E+01 0.500E-06 0.375E+01 -.476E-02 0.103E+06 0.600E+00 0.599E+03 0.765E-02 0.211E+06 0.181E-03
0.333E+01 0.500E-06 0.375E+01 -.485E-02 0.103E+06 0.600E+00 0.599E+03 0.765E-02 0.211E+06 0.181E-03
0.334E+01 0.500E-06 0.375E+01 -.464E-02 0.103E+06 0.600E+00 0.599E+03 0.765E-02 0.211E+06 0.181E-03
0.336E+01 0.500E-06 0.375E+01 -.423E-02 0.103E+06 0.600E+00 0.599E+03 0.765E-02 0.211E+06 0.181E-03
0.337E+01 0.500E-06 0.375E+01 -.374E-02 0.103E+06 0.600E+00 0.599E+03 0.765E-02 0.211E+06 0.181E-03
0.338E+01 0.500E-06 0.375E+01 -.327E-02 0.103E+06 0.600E+00 0.599E+03 0.765E-02 0.211E+06 0.181E-03
0.339E+01 0.500E-06 0.375E+01 -.289E-02 0.103E+06 0.600E+00 0.599E+03 0.765E-02 0.211E+06 0.181E-03
0.341E+01 0.500E-06 0.375E+01 -.261E-02 0.103E+06 0.600E+00 0.599E+03 0.765E-02 0.211E+06 0.181E-03
0.342E+01 0.500E-06 0.376E+01 -.242E-02 0.103E+06 0.600E+00 0.599E+03 0.765E-02 0.211E+06 0.181E-03
0.343E+01 0.500E-06 0.376E+01 -.230E-02 0.103E+06 0.600E+00 0.599E+03 0.765E-02 0.211E+06 0.181E-03
0.344E+01 0.500E-06 0.376E+01 -.224E-02 0.103E+06 0.600E+00 0.599E+03 0.765E-02 0.211E+06 0.181E-03
0.346E+01 0.500E-06 0.376E+01 -.220E-02 0.103E+06 0.600E+00 0.599E+03 0.765E-02 0.211E+06 0.181E-03
0.347E+01 0.500E-06 0.376E+01 -.214E-02 0.103E+06 0.600E+00 0.599E+03 0.766E-02 0.211E+06 0.181E-03
0.348E+01 0.500E-06 0.376E+01 -.208E-02 0.103E+06 0.600E+00 0.599E+03 0.766E-02 0.211E+06 0.181E-03
0.349E+01 0.500E-06 0.376E+01 -.200E-02 0.103E+06 0.600E+00 0.599E+03 0.766E-02 0.211E+06 0.181E-03
0.351E+01 0.500E-06 0.376E+01 -.192E-02 0.103E+06 0.600E+00 0.599E+03 0.766E-02 0.211E+06 0.181E-03
0.352E+01 0.500E-06 0.376E+01 -.186E-02 0.103E+06 0.600E+00 0.599E+03 0.766E-02 0.211E+06 0.181E-03
0.353E+01 0.500E-06 0.376E+01 -.186E-02 0.103E+06 0.600E+00 0.599E+03 0.766E-02 0.211E+06 0.181E-03
0.354E+01 0.500E-06 0.376E+01 -.192E-02 0.103E+06 0.600E+00 0.599E+03 0.766E-02 0.211E+06 0.181E-03
0.356E+01 0.500E-06 0.376E+01 -.204E-02 0.103E+06 0.600E+00 0.599E+03 0.766E-02 0.211E+06 0.181E-03
0.357E+01 0.500E-06 0.376E+01 -.222E-02 0.103E+06 0.600E+00 0.599E+03 0.766E-02 0.211E+06 0.181E-03
0.358E+01 0.500E-06 0.376E+01 -.240E-02 0.103E+06 0.600E+00 0.599E+03 0.766E-02 0.211E+06 0.181E-03
0.359E+01 0.500E-06 0.376E+01 -.255E-02 0.103E+06 0.600E+00 0.599E+03 0.766E-02 0.211E+06 0.181E-03
0.361E+01 0.500E-06 0.376E+01 -.267E-02 0.103E+06 0.600E+00 0.599E+03 0.766E-02 0.211E+06 0.181E-03
0.362E+01 0.500E-06 0.376E+01 -.272E-02 0.103E+06 0.600E+00 0.599E+03 0.766E-02 0.211E+06 0.181E-03
0.363E+01 0.500E-06 0.376E+01 -.269E-02 0.103E+06 0.600E+00 0.599E+03 0.766E-02 0.211E+06 0.181E-03
0.364E+01 0.500E-06 0.376E+01 -.264E-02 0.103E+06 0.600E+00 0.599E+03 0.766E-02 0.211E+06 0.181E-03
0.366E+01 0.500E-06 0.376E+01 -.259E-02 0.103E+06 0.600E+00 0.599E+03 0.766E-02 0.211E+06 0.181E-03
0.367E+01 0.500E-06 0.376E+01 -.257E-02 0.103E+06 0.600E+00 0.599E+03 0.766E-02 0.211E+06 0.181E-03
0.368E+01 0.500E-06 0.376E+01 -.256E-02 0.103E+06 0.600E+00 0.599E+03 0.766E-02 0.211E+06 0.181E-03
0.369E+01 0.500E-06 0.376E+01 -.252E-02 0.103E+06 0.600E+00 0.599E+03 0.766E-02 0.211E+06 0.181E-03
0.371E+01 0.500E-06 0.376E+01 -.243E-02 0.103E+06 0.600E+00 0.599E+03 0.766E-02 0.211E+06 0.181E-03
0.372E+01 0.500E-06 0.376E+01 -.227E-02 0.103E+06 0.600E+00 0.599E+03 0.766E-02 0.211E+06 0.181E-03