 title="contour"
 variables="x","y","u","v",
 "p","den","T","mach","entropy","mu"
 zone i=         400  j=         100  f=point
0.625E-02 0.500E-06 0.100E+04 0.438E-16 0.101E+06 0.118E+01 0.300E+03 0.288E+01 0.807E+05 0.111E-03
0.188E-01 0.500E-06 0.100E+04 0.631E-15 0.101E+06 0.118E+01 0.300E+03 0.288E+01 0.807E+05 0.111E-03
0.312E-01 0.500E-06 0.100E+04 0.807E-15 0.101E+06 0.118E+01 0.300E+03 0.288E+01 0.807E+05 0.111E-03
0.437E-01 0.500E-06 0.100E+04 0.725E-15 0.101E+06 0.118E+01 0.300E+03 0.288E+01 0.807E+05 0.111E-03
0.563E-01 0.500E-06 0.100E+04 0.973E-15 0.101E+06 0.118E+01 0.300E+03 0.288E+01 0.807E+05 0.111E-03
0.688E-01 0.500E-06 0.100E+04 0.973E-15 0.101E+06 0.118E+01 0.300E+03 0.288E+01 0.807E+05 0.111E-03
0.812E-01 0.500E-06 0.100E+04 0.973E-15 0.101E+06 0.118E+01 0.300E+03 0.288E+01 0.807E+05 0.111E-03
0.938E-01 0.500E-06 0.100E+04 0.210E-15 0.101E+06 0.118E+01 0.300E+03 0.288E+01 0.807E+05 0.111E-03
0.106E+00 0.500E-06 0.100E+04 0.973E-15 0.101E+06 0.118E+01 0.300E+03 0.288E+01 0.807E+05 0.111E-03
0.119E+00 0.500E-06 0.100E+04 0.973E-15 0.101E+06 0.118E+01 0.300E+03 0.288E+01 0.807E+05 0.111E-03
0.131E+00 0.500E-06 0.100E+04 0.210E-15 0.101E+06 0.118E+01 0.300E+03 0.288E+01 0.807E+05 0.111E-03
0.144E+00 0.500E-06 0.100E+04 -.912E-15 0.101E+06 0.118E+01 0.300E+03 0.288E+01 0.807E+05 0.111E-03
0.156E+00 0.500E-06 0.100E+04 0.210E-15 0.101E+06 0.118E+01 0.300E+03 0.288E+01 0.807E+05 0.111E-03
0.169E+00 0.500E-06 0.100E+04 -.912E-15 0.101E+06 0.118E+01 0.300E+03 0.288E+01 0.807E+05 0.111E-03
0.181E+00 0.500E-06 0.100E+04 0.210E-15 0.101E+06 0.118E+01 0.300E+03 0.288E+01 0.807E+05 0.111E-03
0.194E+00 0.500E-06 0.100E+04 0.210E-15 0.101E+06 0.118E+01 0.300E+03 0.288E+01 0.807E+05 0.111E-03
0.206E+00 0.500E-06 0.100E+04 -.912E-15 0.101E+06 0.118E+01 0.300E+03 0.288E+01 0.807E+05 0.111E-03
0.219E+00 0.500E-06 0.100E+04 0.210E-15 0.101E+06 0.118E+01 0.300E+03 0.288E+01 0.807E+05 0.111E-03
0.231E+00 0.500E-06 0.100E+04 -.912E-15 0.101E+06 0.118E+01 0.300E+03 0.288E+01 0.807E+05 0.111E-03
0.244E+00 0.500E-06 0.100E+04 0.210E-15 0.101E+06 0.118E+01 0.300E+03 0.288E+01 0.807E+05 0.111E-03
0.256E+00 0.500E-06 0.100E+04 0.210E-15 0.101E+06 0.118E+01 0.300E+03 0.288E+01 0.807E+05 0.111E-03
0.269E+00 0.500E-06 0.100E+04 0.210E-15 0.101E+06 0.118E+01 0.300E+03 0.288E+01 0.807E+05 0.111E-03
0.281E+00 0.500E-06 0.100E+04 0.210E-15 0.101E+06 0.118E+01 0.300E+03 0.288E+01 0.807E+05 0.111E-03
0.294E+00 0.500E-06 0.100E+04 0.210E-15 0.101E+06 0.118E+01 0.300E+03 0.288E+01 0.807E+05 0.111E-03
0.306E+00 0.500E-06 0.100E+04 0.210E-15 0.101E+06 0.118E+01 0.300E+03 0.288E+01 0.807E+05 0.111E-03
0.319E+00 0.500E-06 0.100E+04 0.210E-15 0.101E+06 0.118E+01 0.300E+03 0.288E+01 0.807E+05 0.111E-03
0.331E+00 0.500E-06 0.100E+04 0.210E-15 0.101E+06 0.118E+01 0.300E+03 0.288E+01 0.807E+05 0.111E-03
0.344E+00 0.500E-06 0.100E+04 0.210E-15 0.101E+06 0.118E+01 0.300E+03 0.288E+01 0.807E+05 0.111E-03
0.356E+00 0.500E-06 0.100E+04 0.210E-15 0.101E+06 0.118E+01 0.300E+03 0.288E+01 0.807E+05 0.111E-03
0.369E+00 0.500E-06 0.100E+04 0.210E-15 0.101E+06 0.118E+01 0.300E+03 0.288E+01 0.807E+05 0.111E-03
0.381E+00 0.500E-06 0.100E+04 0.210E-15 0.101E+06 0.118E+01 0.300E+03 0.288E+01 0.807E+05 0.111E-03
0.394E+00 0.500E-06 0.100E+04 0.210E-15 0.101E+06 0.118E+01 0.300E+03 0.288E+01 0.807E+05 0.111E-03
0.406E+00 0.500E-06 0.100E+04 0.210E-15 0.101E+06 0.118E+01 0.300E+03 0.288E+01 0.807E+05 0.111E-03
0.419E+00 0.500E-06 0.100E+04 0.210E-15 0.101E+06 0.118E+01 0.300E+03 0.288E+01 0.807E+05 0.111E-03
0.431E+00 0.500E-06 0.100E+04 0.210E-15 0.101E+06 0.118E+01 0.300E+03 0.288E+01 0.807E+05 0.111E-03
0.444E+00 0.500E-06 0.100E+04 0.210E-15 0.101E+06 0.118E+01 0.300E+03 0.288E+01 0.807E+05 0.111E-03
0.456E+00 0.500E-06 0.100E+04 0.210E-15 0.101E+06 0.118E+01 0.300E+03 0.288E+01 0.807E+05 0.111E-03
0.469E+00 0.500E-06 0.100E+04 0.210E-15 0.101E+06 0.118E+01 0.300E+03 0.288E+01 0.807E+05 0.111E-03
0.481E+00 0.500E-06 0.100E+04 0.210E-15 0.101E+06 0.118E+01 0.300E+03 0.288E+01 0.807E+05 0.111E-03
0.494E+00 0.500E-06 0.100E+04 0.210E-15 0.101E+06 0.118E+01 0.300E+03 0.288E+01 0.807E+05 0.111E-03
0.506E+00 0.500E-06 0.100E+04 0.210E-15 0.101E+06 0.118E+01 0.300E+03 0.288E+01 0.807E+05 0.111E-03
0.519E+00 0.500E-06 0.100E+04 -.912E-15 0.101E+06 0.118E+01 0.300E+03 0.288E+01 0.807E+05 0.111E-03
0.531E+00 0.500E-06 0.100E+04 0.210E-15 0.101E+06 0.118E+01 0.300E+03 0.288E+01 0.807E+05 0.111E-03
0.544E+00 0.500E-06 0.100E+04 -.912E-15 0.101E+06 0.118E+01 0.300E+03 0.288E+01 0.807E+05 0.111E-03
0.556E+00 0.500E-06 0.100E+04 0.210E-15 0.101E+06 0.118E+01 0.300E+03 0.288E+01 0.807E+05 0.111E-03
0.569E+00 0.500E-06 0.100E+04 0.210E-15 0.101E+06 0.118E+01 0.300E+03 0.288E+01 0.807E+05 0.111E-03
0.581E+00 0.500E-06 0.100E+04 -.912E-15 0.101E+06 0.118E+01 0.300E+03 0.288E+01 0.807E+05 0.111E-03
0.594E+00 0.500E-06 0.100E+04 0.210E-15 0.101E+06 0.118E+01 0.300E+03 0.288E+01 0.807E+05 0.111E-03
0.606E+00 0.500E-06 0.100E+04 -.912E-15 0.101E+06 0.118E+01 0.300E+03 0.288E+01 0.807E+05 0.111E-03
0.619E+00 0.500E-06 0.100E+04 0.210E-15 0.101E+06 0.118E+01 0.300E+03 0.288E+01 0.807E+05 0.111E-03
0.631E+00 0.500E-06 0.100E+04 0.210E-15 0.101E+06 0.118E+01 0.300E+03 0.288E+01 0.807E+05 0.111E-03
0.644E+00 0.500E-06 0.100E+04 -.912E-15 0.101E+06 0.118E+01 0.300E+03 0.288E+01 0.807E+05 0.111E-03
0.656E+00 0.500E-06 0.100E+04 0.210E-15 0.101E+06 0.118E+01 0.300E+03 0.288E+01 0.807E+05 0.111E-03
0.669E+00 0.500E-06 0.100E+04 -.912E-15 0.101E+06 0.118E+01 0.300E+03 0.288E+01 0.807E+05 0.111E-03
0.681E+00 0.500E-06 0.100E+04 0.210E-15 0.101E+06 0.118E+01 0.300E+03 0.288E+01 0.807E+05 0.111E-03
0.694E+00 0.500E-06 0.100E+04 0.210E-15 0.101E+06 0.118E+01 0.300E+03 0.288E+01 0.807E+05 0.111E-03
0.706E+00 0.500E-06 0.100E+04 -.912E-15 0.101E+06 0.118E+01 0.300E+03 0.288E+01 0.807E+05 0.111E-03
0.719E+00 0.500E-06 0.100E+04 0.210E-15 0.101E+06 0.118E+01 0.300E+03 0.288E+01 0.807E+05 0.111E-03
0.731E+00 0.500E-06 0.100E+04 -.912E-15 0.101E+06 0.118E+01 0.300E+03 0.288E+01 0.807E+05 0.111E-03
0.744E+00 0.500E-06 0.100E+04 0.210E-15 0.101E+06 0.118E+01 0.300E+03 0.288E+01 0.807E+05 0.111E-03
0.756E+00 0.500E-06 0.100E+04 0.210E-15 0.101E+06 0.118E+01 0.300E+03 0.288E+01 0.807E+05 0.111E-03
0.769E+00 0.500E-06 0.100E+04 -.912E-15 0.101E+06 0.118E+01 0.300E+03 0.288E+01 0.807E+05 0.111E-03
0.781E+00 0.500E-06 0.100E+04 0.210E-15 0.101E+06 0.118E+01 0.300E+03 0.288E+01 0.807E+05 0.111E-03
0.794E+00 0.500E-06 0.100E+04 -.912E-15 0.101E+06 0.118E+01 0.300E+03 0.288E+01 0.807E+05 0.111E-03
0.806E+00 0.500E-06 0.100E+04 0.210E-15 0.101E+06 0.118E+01 0.300E+03 0.288E+01 0.807E+05 0.111E-03
0.819E+00 0.500E-06 0.100E+04 0.210E-15 0.101E+06 0.118E+01 0.300E+03 0.288E+01 0.807E+05 0.111E-03
0.831E+00 0.500E-06 0.100E+04 -.912E-15 0.101E+06 0.118E+01 0.300E+03 0.288E+01 0.807E+05 0.111E-03
0.844E+00 0.500E-06 0.100E+04 0.210E-15 0.101E+06 0.118E+01 0.300E+03 0.288E+01 0.807E+05 0.111E-03
0.856E+00 0.500E-06 0.100E+04 -.912E-15 0.101E+06 0.118E+01 0.300E+03 0.288E+01 0.807E+05 0.111E-03
0.869E+00 0.500E-06 0.100E+04 0.210E-15 0.101E+06 0.118E+01 0.300E+03 0.288E+01 0.807E+05 0.111E-03
0.881E+00 0.500E-06 0.100E+04 0.210E-15 0.101E+06 0.118E+01 0.300E+03 0.288E+01 0.807E+05 0.111E-03
0.894E+00 0.500E-06 0.100E+04 -.912E-15 0.101E+06 0.118E+01 0.300E+03 0.288E+01 0.807E+05 0.111E-03
0.906E+00 0.500E-06 0.100E+04 0.210E-15 0.101E+06 0.118E+01 0.300E+03 0.288E+01 0.807E+05 0.111E-03
0.919E+00 0.500E-06 0.100E+04 -.912E-15 0.101E+06 0.118E+01 0.300E+03 0.288E+01 0.807E+05 0.111E-03
0.931E+00 0.500E-06 0.100E+04 0.210E-15 0.101E+06 0.118E+01 0.300E+03 0.288E+01 0.807E+05 0.111E-03
0.944E+00 0.500E-06 0.100E+04 0.210E-15 0.101E+06 0.118E+01 0.300E+03 0.288E+01 0.807E+05 0.111E-03
0.956E+00 0.500E-06 0.100E+04 -.948E-15 0.101E+06 0.118E+01 0.300E+03 0.288E+01 0.807E+05 0.111E-03
0.969E+00 0.500E-06 0.100E+04 -.327E-12 0.101E+06 0.118E+01 0.300E+03 0.288E+01 0.807E+05 0.111E-03
0.981E+00 0.500E-06 0.100E+04 -.397E-07 0.101E+06 0.118E+01 0.300E+03 0.288E+01 0.807E+05 0.111E-03
0.994E+00 0.500E-06 0.100E+04 -.410E-01 0.101E+06 0.118E+01 0.300E+03 0.288E+01 0.807E+05 0.111E-03
0.101E+01 0.500E-06 0.878E+01 0.105E+00 0.107E+06 0.395E+00 0.945E+03 0.142E-01 0.393E+06 0.241E-03
0.102E+01 0.500E-06 0.600E+01 -.600E-02 0.103E+06 0.387E+00 0.929E+03 0.982E-02 0.390E+06 0.238E-03
0.103E+01 0.500E-06 0.599E+01 -.102E-02 0.103E+06 0.388E+00 0.929E+03 0.980E-02 0.389E+06 0.238E-03
0.104E+01 0.500E-06 0.599E+01 -.141E-01 0.103E+06 0.388E+00 0.929E+03 0.981E-02 0.389E+06 0.238E-03
0.106E+01 0.500E-06 0.599E+01 -.116E-01 0.103E+06 0.388E+00 0.929E+03 0.981E-02 0.389E+06 0.238E-03
0.107E+01 0.500E-06 0.599E+01 -.347E-02 0.103E+06 0.388E+00 0.929E+03 0.981E-02 0.389E+06 0.238E-03
0.108E+01 0.500E-06 0.600E+01 -.128E-02 0.103E+06 0.388E+00 0.929E+03 0.981E-02 0.389E+06 0.238E-03
0.109E+01 0.500E-06 0.600E+01 -.684E-02 0.103E+06 0.388E+00 0.929E+03 0.982E-02 0.389E+06 0.238E-03
0.111E+01 0.500E-06 0.600E+01 -.123E-01 0.103E+06 0.388E+00 0.929E+03 0.982E-02 0.389E+06 0.238E-03
0.112E+01 0.500E-06 0.600E+01 -.105E-01 0.103E+06 0.388E+00 0.929E+03 0.982E-02 0.389E+06 0.238E-03
0.113E+01 0.500E-06 0.600E+01 -.449E-02 0.103E+06 0.388E+00 0.929E+03 0.982E-02 0.389E+06 0.238E-03
0.114E+01 0.500E-06 0.600E+01 -.960E-03 0.103E+06 0.388E+00 0.929E+03 0.982E-02 0.389E+06 0.238E-03
0.116E+01 0.500E-06 0.600E+01 -.945E-03 0.103E+06 0.388E+00 0.929E+03 0.982E-02 0.389E+06 0.238E-03
0.117E+01 0.500E-06 0.600E+01 -.217E-02 0.103E+06 0.388E+00 0.929E+03 0.982E-02 0.389E+06 0.238E-03
0.118E+01 0.500E-06 0.600E+01 -.382E-02 0.103E+06 0.388E+00 0.929E+03 0.983E-02 0.389E+06 0.238E-03
0.119E+01 0.500E-06 0.600E+01 -.553E-02 0.103E+06 0.388E+00 0.929E+03 0.983E-02 0.389E+06 0.238E-03
0.121E+01 0.500E-06 0.600E+01 -.856E-02 0.103E+06 0.388E+00 0.929E+03 0.983E-02 0.389E+06 0.238E-03
0.122E+01 0.500E-06 0.601E+01 -.109E-01 0.103E+06 0.388E+00 0.929E+03 0.983E-02 0.389E+06 0.238E-03
0.123E+01 0.500E-06 0.601E+01 -.126E-01 0.103E+06 0.388E+00 0.929E+03 0.983E-02 0.389E+06 0.238E-03
0.124E+01 0.500E-06 0.601E+01 -.132E-01 0.103E+06 0.388E+00 0.929E+03 0.983E-02 0.389E+06 0.238E-03
0.126E+01 0.500E-06 0.601E+01 -.117E-01 0.103E+06 0.388E+00 0.929E+03 0.983E-02 0.389E+06 0.238E-03
0.127E+01 0.500E-06 0.601E+01 -.827E-02 0.103E+06 0.388E+00 0.929E+03 0.983E-02 0.389E+06 0.238E-03
0.128E+01 0.500E-06 0.601E+01 -.497E-02 0.103E+06 0.388E+00 0.929E+03 0.983E-02 0.389E+06 0.238E-03
0.129E+01 0.500E-06 0.601E+01 -.332E-02 0.103E+06 0.388E+00 0.929E+03 0.983E-02 0.389E+06 0.238E-03
0.131E+01 0.500E-06 0.601E+01 -.420E-02 0.103E+06 0.388E+00 0.929E+03 0.984E-02 0.389E+06 0.238E-03
0.132E+01 0.500E-06 0.601E+01 -.290E-02 0.103E+06 0.388E+00 0.929E+03 0.984E-02 0.389E+06 0.238E-03
0.133E+01 0.500E-06 0.601E+01 -.209E-02 0.103E+06 0.388E+00 0.929E+03 0.984E-02 0.389E+06 0.238E-03
0.134E+01 0.500E-06 0.601E+01 -.243E-02 0.103E+06 0.388E+00 0.929E+03 0.984E-02 0.389E+06 0.238E-03
0.136E+01 0.500E-06 0.601E+01 -.617E-02 0.103E+06 0.388E+00 0.929E+03 0.984E-02 0.389E+06 0.238E-03
0.137E+01 0.500E-06 0.601E+01 -.131E-01 0.103E+06 0.388E+00 0.929E+03 0.984E-02 0.389E+06 0.238E-03
0.138E+01 0.500E-06 0.601E+01 -.221E-01 0.103E+06 0.388E+00 0.929E+03 0.984E-02 0.389E+06 0.238E-03
0.139E+01 0.500E-06 0.601E+01 -.321E-01 0.103E+06 0.388E+00 0.929E+03 0.984E-02 0.389E+06 0.238E-03
0.141E+01 0.500E-06 0.601E+01 -.438E-01 0.103E+06 0.388E+00 0.929E+03 0.984E-02 0.389E+06 0.238E-03
0.142E+01 0.500E-06 0.601E+01 -.500E-01 0.103E+06 0.388E+00 0.929E+03 0.984E-02 0.389E+06 0.238E-03
0.143E+01 0.500E-06 0.601E+01 -.505E-01 0.103E+06 0.388E+00 0.929E+03 0.984E-02 0.389E+06 0.238E-03
0.144E+01 0.500E-06 0.601E+01 -.383E-01 0.103E+06 0.387E+00 0.929E+03 0.984E-02 0.389E+06 0.238E-03
0.146E+01 0.500E-06 0.601E+01 -.123E-01 0.103E+06 0.387E+00 0.928E+03 0.984E-02 0.389E+06 0.238E-03
0.147E+01 0.500E-06 0.601E+01 0.127E-01 0.103E+06 0.387E+00 0.928E+03 0.984E-02 0.389E+06 0.238E-03
0.148E+01 0.500E-06 0.601E+01 0.376E-01 0.103E+06 0.387E+00 0.928E+03 0.984E-02 0.389E+06 0.238E-03
0.149E+01 0.500E-06 0.601E+01 0.680E-01 0.103E+06 0.387E+00 0.928E+03 0.984E-02 0.389E+06 0.238E-03
0.151E+01 0.500E-06 0.602E+01 0.101E+00 0.103E+06 0.388E+00 0.929E+03 0.985E-02 0.389E+06 0.238E-03
0.152E+01 0.500E-06 0.602E+01 0.139E+00 0.103E+06 0.388E+00 0.929E+03 0.986E-02 0.389E+06 0.238E-03
0.153E+01 0.500E-06 0.603E+01 0.184E+00 0.104E+06 0.389E+00 0.929E+03 0.988E-02 0.389E+06 0.238E-03
0.154E+01 0.500E-06 0.605E+01 0.206E+00 0.104E+06 0.389E+00 0.930E+03 0.990E-02 0.389E+06 0.238E-03
0.156E+01 0.500E-06 0.606E+01 0.187E+00 0.104E+06 0.390E+00 0.931E+03 0.992E-02 0.389E+06 0.239E-03
0.157E+01 0.500E-06 0.607E+01 0.124E+00 0.104E+06 0.390E+00 0.931E+03 0.993E-02 0.389E+06 0.239E-03
0.158E+01 0.500E-06 0.608E+01 0.547E-01 0.104E+06 0.391E+00 0.932E+03 0.994E-02 0.389E+06 0.239E-03
0.159E+01 0.500E-06 0.609E+01 0.812E-02 0.105E+06 0.391E+00 0.932E+03 0.995E-02 0.389E+06 0.239E-03
0.161E+01 0.500E-06 0.609E+01 -.347E-01 0.105E+06 0.391E+00 0.932E+03 0.995E-02 0.389E+06 0.239E-03
0.162E+01 0.500E-06 0.609E+01 -.722E-01 0.105E+06 0.391E+00 0.932E+03 0.995E-02 0.389E+06 0.239E-03
0.163E+01 0.500E-06 0.608E+01 -.111E+00 0.104E+06 0.391E+00 0.932E+03 0.994E-02 0.389E+06 0.239E-03
0.164E+01 0.500E-06 0.608E+01 -.146E+00 0.104E+06 0.390E+00 0.931E+03 0.994E-02 0.389E+06 0.239E-03
0.166E+01 0.500E-06 0.607E+01 -.162E+00 0.104E+06 0.390E+00 0.931E+03 0.993E-02 0.389E+06 0.239E-03
0.167E+01 0.500E-06 0.607E+01 -.160E+00 0.104E+06 0.390E+00 0.931E+03 0.992E-02 0.389E+06 0.239E-03
0.168E+01 0.500E-06 0.606E+01 -.149E+00 0.104E+06 0.389E+00 0.931E+03 0.992E-02 0.389E+06 0.239E-03
0.169E+01 0.500E-06 0.606E+01 -.129E+00 0.104E+06 0.389E+00 0.930E+03 0.991E-02 0.389E+06 0.239E-03
0.171E+01 0.500E-06 0.605E+01 -.102E+00 0.104E+06 0.389E+00 0.930E+03 0.990E-02 0.389E+06 0.238E-03
0.172E+01 0.500E-06 0.605E+01 -.731E-01 0.104E+06 0.389E+00 0.930E+03 0.990E-02 0.389E+06 0.238E-03
0.173E+01 0.500E-06 0.605E+01 -.457E-01 0.104E+06 0.389E+00 0.930E+03 0.989E-02 0.389E+06 0.238E-03
0.174E+01 0.500E-06 0.605E+01 -.204E-01 0.104E+06 0.389E+00 0.930E+03 0.989E-02 0.389E+06 0.238E-03
0.176E+01 0.500E-06 0.605E+01 0.238E-02 0.104E+06 0.389E+00 0.930E+03 0.989E-02 0.389E+06 0.238E-03
0.177E+01 0.500E-06 0.605E+01 0.233E-01 0.104E+06 0.389E+00 0.930E+03 0.989E-02 0.389E+06 0.238E-03
0.178E+01 0.500E-06 0.605E+01 0.390E-01 0.104E+06 0.389E+00 0.930E+03 0.990E-02 0.389E+06 0.238E-03
0.179E+01 0.500E-06 0.605E+01 0.529E-01 0.104E+06 0.389E+00 0.930E+03 0.990E-02 0.389E+06 0.238E-03
0.181E+01 0.500E-06 0.605E+01 0.676E-01 0.104E+06 0.389E+00 0.930E+03 0.991E-02 0.389E+06 0.238E-03
0.182E+01 0.500E-06 0.606E+01 0.798E-01 0.104E+06 0.389E+00 0.930E+03 0.991E-02 0.389E+06 0.239E-03
0.183E+01 0.500E-06 0.606E+01 0.834E-01 0.104E+06 0.390E+00 0.930E+03 0.992E-02 0.389E+06 0.239E-03
0.184E+01 0.500E-06 0.607E+01 0.804E-01 0.104E+06 0.390E+00 0.931E+03 0.992E-02 0.389E+06 0.239E-03
0.186E+01 0.500E-06 0.607E+01 0.774E-01 0.104E+06 0.390E+00 0.931E+03 0.993E-02 0.389E+06 0.239E-03
0.187E+01 0.500E-06 0.607E+01 0.770E-01 0.104E+06 0.390E+00 0.931E+03 0.993E-02 0.389E+06 0.239E-03
0.188E+01 0.500E-06 0.607E+01 0.759E-01 0.104E+06 0.390E+00 0.931E+03 0.993E-02 0.389E+06 0.239E-03
0.189E+01 0.500E-06 0.607E+01 0.706E-01 0.104E+06 0.390E+00 0.931E+03 0.993E-02 0.389E+06 0.239E-03
0.191E+01 0.500E-06 0.608E+01 0.620E-01 0.104E+06 0.390E+00 0.931E+03 0.993E-02 0.389E+06 0.239E-03
0.192E+01 0.500E-06 0.608E+01 0.533E-01 0.104E+06 0.390E+00 0.931E+03 0.994E-02 0.389E+06 0.239E-03
0.193E+01 0.500E-06 0.608E+01 0.468E-01 0.104E+06 0.390E+00 0.931E+03 0.994E-02 0.389E+06 0.239E-03
0.194E+01 0.500E-06 0.608E+01 0.418E-01 0.104E+06 0.390E+00 0.931E+03 0.994E-02 0.389E+06 0.239E-03
0.196E+01 0.500E-06 0.608E+01 0.364E-01 0.104E+06 0.391E+00 0.931E+03 0.994E-02 0.389E+06 0.239E-03
0.197E+01 0.500E-06 0.608E+01 0.300E-01 0.104E+06 0.391E+00 0.932E+03 0.994E-02 0.389E+06 0.239E-03
0.198E+01 0.500E-06 0.609E+01 0.239E-01 0.104E+06 0.391E+00 0.932E+03 0.995E-02 0.389E+06 0.239E-03
0.199E+01 0.500E-06 0.609E+01 0.193E-01 0.105E+06 0.391E+00 0.932E+03 0.995E-02 0.389E+06 0.239E-03
0.201E+01 0.500E-06 0.609E+01 0.160E-01 0.105E+06 0.391E+00 0.932E+03 0.995E-02 0.389E+06 0.239E-03
0.202E+01 0.500E-06 0.609E+01 0.132E-01 0.105E+06 0.391E+00 0.932E+03 0.996E-02 0.389E+06 0.239E-03
0.203E+01 0.500E-06 0.609E+01 0.106E-01 0.105E+06 0.391E+00 0.932E+03 0.996E-02 0.389E+06 0.239E-03
0.204E+01 0.500E-06 0.610E+01 0.812E-02 0.105E+06 0.391E+00 0.932E+03 0.996E-02 0.389E+06 0.239E-03
0.206E+01 0.500E-06 0.610E+01 0.576E-02 0.105E+06 0.391E+00 0.932E+03 0.996E-02 0.389E+06 0.239E-03
0.207E+01 0.500E-06 0.610E+01 0.382E-02 0.105E+06 0.391E+00 0.932E+03 0.996E-02 0.389E+06 0.239E-03
0.208E+01 0.500E-06 0.610E+01 0.262E-02 0.105E+06 0.391E+00 0.932E+03 0.996E-02 0.389E+06 0.239E-03
0.209E+01 0.500E-06 0.610E+01 0.205E-02 0.105E+06 0.391E+00 0.932E+03 0.996E-02 0.389E+06 0.239E-03
0.211E+01 0.500E-06 0.610E+01 0.156E-02 0.105E+06 0.391E+00 0.932E+03 0.996E-02 0.389E+06 0.239E-03
0.212E+01 0.500E-06 0.609E+01 0.818E-03 0.105E+06 0.391E+00 0.932E+03 0.996E-02 0.389E+06 0.239E-03
0.213E+01 0.500E-06 0.609E+01 -.283E-03 0.105E+06 0.391E+00 0.932E+03 0.995E-02 0.389E+06 0.239E-03
0.214E+01 0.500E-06 0.609E+01 -.150E-02 0.105E+06 0.391E+00 0.932E+03 0.995E-02 0.389E+06 0.239E-03
0.216E+01 0.500E-06 0.609E+01 -.331E-02 0.105E+06 0.391E+00 0.932E+03 0.995E-02 0.389E+06 0.239E-03
0.217E+01 0.500E-06 0.609E+01 -.587E-02 0.105E+06 0.391E+00 0.932E+03 0.995E-02 0.389E+06 0.239E-03
0.218E+01 0.500E-06 0.609E+01 -.921E-02 0.105E+06 0.391E+00 0.932E+03 0.994E-02 0.389E+06 0.239E-03
0.219E+01 0.500E-06 0.608E+01 -.129E-01 0.105E+06 0.391E+00 0.932E+03 0.994E-02 0.389E+06 0.239E-03
0.221E+01 0.500E-06 0.608E+01 -.171E-01 0.105E+06 0.391E+00 0.932E+03 0.994E-02 0.389E+06 0.239E-03
0.222E+01 0.500E-06 0.608E+01 -.220E-01 0.105E+06 0.391E+00 0.932E+03 0.993E-02 0.389E+06 0.239E-03
0.223E+01 0.500E-06 0.608E+01 -.279E-01 0.105E+06 0.391E+00 0.932E+03 0.993E-02 0.389E+06 0.239E-03
0.224E+01 0.500E-06 0.607E+01 -.340E-01 0.105E+06 0.391E+00 0.932E+03 0.992E-02 0.389E+06 0.239E-03
0.226E+01 0.500E-06 0.607E+01 -.401E-01 0.105E+06 0.391E+00 0.932E+03 0.992E-02 0.389E+06 0.239E-03
0.227E+01 0.500E-06 0.607E+01 -.461E-01 0.105E+06 0.391E+00 0.932E+03 0.992E-02 0.389E+06 0.239E-03
0.228E+01 0.500E-06 0.606E+01 -.516E-01 0.105E+06 0.391E+00 0.932E+03 0.991E-02 0.389E+06 0.239E-03
0.229E+01 0.500E-06 0.606E+01 -.570E-01 0.105E+06 0.391E+00 0.932E+03 0.990E-02 0.389E+06 0.239E-03
0.231E+01 0.500E-06 0.606E+01 -.627E-01 0.104E+06 0.391E+00 0.932E+03 0.990E-02 0.389E+06 0.239E-03
0.232E+01 0.500E-06 0.605E+01 -.685E-01 0.104E+06 0.391E+00 0.932E+03 0.989E-02 0.389E+06 0.239E-03
0.233E+01 0.500E-06 0.605E+01 -.742E-01 0.104E+06 0.390E+00 0.932E+03 0.989E-02 0.389E+06 0.239E-03
0.234E+01 0.500E-06 0.605E+01 -.798E-01 0.104E+06 0.390E+00 0.931E+03 0.988E-02 0.389E+06 0.239E-03
0.236E+01 0.500E-06 0.604E+01 -.853E-01 0.104E+06 0.390E+00 0.931E+03 0.988E-02 0.389E+06 0.239E-03
0.237E+01 0.500E-06 0.604E+01 -.907E-01 0.104E+06 0.390E+00 0.931E+03 0.987E-02 0.389E+06 0.239E-03
0.238E+01 0.500E-06 0.603E+01 -.964E-01 0.104E+06 0.390E+00 0.931E+03 0.986E-02 0.389E+06 0.239E-03
0.239E+01 0.500E-06 0.603E+01 -.102E+00 0.104E+06 0.390E+00 0.931E+03 0.986E-02 0.389E+06 0.239E-03
0.241E+01 0.500E-06 0.602E+01 -.108E+00 0.104E+06 0.390E+00 0.931E+03 0.985E-02 0.389E+06 0.239E-03
0.242E+01 0.500E-06 0.602E+01 -.114E+00 0.104E+06 0.389E+00 0.931E+03 0.984E-02 0.390E+06 0.239E-03
0.243E+01 0.500E-06 0.601E+01 -.120E+00 0.104E+06 0.389E+00 0.930E+03 0.983E-02 0.390E+06 0.239E-03
0.244E+01 0.500E-06 0.600E+01 -.126E+00 0.104E+06 0.389E+00 0.930E+03 0.982E-02 0.390E+06 0.238E-03
0.246E+01 0.500E-06 0.600E+01 -.132E+00 0.104E+06 0.389E+00 0.930E+03 0.981E-02 0.390E+06 0.238E-03
0.247E+01 0.500E-06 0.599E+01 -.138E+00 0.104E+06 0.388E+00 0.930E+03 0.981E-02 0.390E+06 0.238E-03
0.248E+01 0.500E-06 0.598E+01 -.143E+00 0.104E+06 0.388E+00 0.929E+03 0.979E-02 0.390E+06 0.238E-03
0.249E+01 0.500E-06 0.598E+01 -.147E+00 0.103E+06 0.388E+00 0.929E+03 0.978E-02 0.390E+06 0.238E-03
0.251E+01 0.500E-06 0.597E+01 -.151E+00 0.103E+06 0.387E+00 0.929E+03 0.977E-02 0.390E+06 0.238E-03
0.252E+01 0.500E-06 0.596E+01 -.154E+00 0.103E+06 0.387E+00 0.929E+03 0.976E-02 0.390E+06 0.238E-03
0.253E+01 0.500E-06 0.595E+01 -.157E+00 0.103E+06 0.387E+00 0.928E+03 0.975E-02 0.390E+06 0.238E-03
0.254E+01 0.500E-06 0.595E+01 -.159E+00 0.103E+06 0.387E+00 0.928E+03 0.974E-02 0.390E+06 0.238E-03
0.256E+01 0.500E-06 0.594E+01 -.161E+00 0.103E+06 0.386E+00 0.928E+03 0.973E-02 0.390E+06 0.238E-03
0.257E+01 0.500E-06 0.593E+01 -.163E+00 0.103E+06 0.386E+00 0.927E+03 0.972E-02 0.390E+06 0.238E-03
0.258E+01 0.500E-06 0.592E+01 -.165E+00 0.103E+06 0.386E+00 0.927E+03 0.971E-02 0.390E+06 0.238E-03
0.259E+01 0.500E-06 0.592E+01 -.167E+00 0.102E+06 0.385E+00 0.927E+03 0.970E-02 0.390E+06 0.238E-03
0.261E+01 0.500E-06 0.591E+01 -.169E+00 0.102E+06 0.385E+00 0.926E+03 0.969E-02 0.390E+06 0.238E-03
0.262E+01 0.500E-06 0.590E+01 -.171E+00 0.102E+06 0.385E+00 0.926E+03 0.968E-02 0.390E+06 0.238E-03
0.263E+01 0.500E-06 0.590E+01 -.173E+00 0.102E+06 0.384E+00 0.926E+03 0.967E-02 0.390E+06 0.238E-03
0.264E+01 0.500E-06 0.589E+01 -.175E+00 0.102E+06 0.384E+00 0.926E+03 0.967E-02 0.390E+06 0.238E-03
0.266E+01 0.500E-06 0.589E+01 -.176E+00 0.102E+06 0.384E+00 0.925E+03 0.966E-02 0.389E+06 0.238E-03
0.267E+01 0.500E-06 0.588E+01 -.178E+00 0.102E+06 0.384E+00 0.925E+03 0.965E-02 0.389E+06 0.238E-03
0.268E+01 0.500E-06 0.587E+01 -.179E+00 0.102E+06 0.383E+00 0.925E+03 0.964E-02 0.389E+06 0.238E-03
0.269E+01 0.500E-06 0.587E+01 -.180E+00 0.102E+06 0.383E+00 0.925E+03 0.963E-02 0.389E+06 0.238E-03
0.271E+01 0.500E-06 0.586E+01 -.180E+00 0.102E+06 0.383E+00 0.924E+03 0.963E-02 0.389E+06 0.238E-03
0.272E+01 0.500E-06 0.586E+01 -.179E+00 0.101E+06 0.383E+00 0.924E+03 0.962E-02 0.389E+06 0.238E-03
0.273E+01 0.500E-06 0.585E+01 -.178E+00 0.101E+06 0.382E+00 0.924E+03 0.961E-02 0.389E+06 0.238E-03
0.274E+01 0.500E-06 0.585E+01 -.176E+00 0.101E+06 0.382E+00 0.924E+03 0.960E-02 0.389E+06 0.237E-03
0.276E+01 0.500E-06 0.584E+01 -.173E+00 0.101E+06 0.382E+00 0.923E+03 0.960E-02 0.389E+06 0.237E-03
0.277E+01 0.500E-06 0.584E+01 -.170E+00 0.101E+06 0.382E+00 0.923E+03 0.959E-02 0.389E+06 0.237E-03
0.278E+01 0.500E-06 0.583E+01 -.166E+00 0.101E+06 0.381E+00 0.923E+03 0.959E-02 0.389E+06 0.237E-03
0.279E+01 0.500E-06 0.583E+01 -.162E+00 0.101E+06 0.381E+00 0.923E+03 0.958E-02 0.389E+06 0.237E-03
0.281E+01 0.500E-06 0.583E+01 -.158E+00 0.101E+06 0.381E+00 0.922E+03 0.957E-02 0.389E+06 0.237E-03
0.282E+01 0.500E-06 0.582E+01 -.153E+00 0.101E+06 0.381E+00 0.922E+03 0.957E-02 0.389E+06 0.237E-03
0.283E+01 0.500E-06 0.582E+01 -.149E+00 0.101E+06 0.381E+00 0.922E+03 0.956E-02 0.389E+06 0.237E-03
0.284E+01 0.500E-06 0.582E+01 -.145E+00 0.101E+06 0.380E+00 0.922E+03 0.956E-02 0.389E+06 0.237E-03
0.286E+01 0.500E-06 0.581E+01 -.142E+00 0.101E+06 0.380E+00 0.922E+03 0.955E-02 0.389E+06 0.237E-03
0.287E+01 0.500E-06 0.581E+01 -.140E+00 0.101E+06 0.380E+00 0.922E+03 0.955E-02 0.389E+06 0.237E-03
0.288E+01 0.500E-06 0.581E+01 -.138E+00 0.100E+06 0.380E+00 0.921E+03 0.955E-02 0.389E+06 0.237E-03
0.289E+01 0.500E-06 0.580E+01 -.135E+00 0.100E+06 0.380E+00 0.921E+03 0.954E-02 0.389E+06 0.237E-03
0.291E+01 0.500E-06 0.580E+01 -.130E+00 0.100E+06 0.380E+00 0.921E+03 0.954E-02 0.389E+06 0.237E-03
0.292E+01 0.500E-06 0.580E+01 -.120E+00 0.100E+06 0.379E+00 0.921E+03 0.954E-02 0.389E+06 0.237E-03
0.293E+01 0.500E-06 0.580E+01 -.104E+00 0.100E+06 0.379E+00 0.921E+03 0.954E-02 0.389E+06 0.237E-03
0.294E+01 0.500E-06 0.580E+01 -.829E-01 0.100E+06 0.379E+00 0.921E+03 0.953E-02 0.389E+06 0.237E-03
0.296E+01 0.500E-06 0.580E+01 -.576E-01 0.100E+06 0.379E+00 0.920E+03 0.953E-02 0.389E+06 0.237E-03
0.297E+01 0.500E-06 0.580E+01 -.321E-01 0.100E+06 0.379E+00 0.920E+03 0.953E-02 0.389E+06 0.237E-03
0.298E+01 0.500E-06 0.580E+01 -.994E-02 0.100E+06 0.379E+00 0.920E+03 0.953E-02 0.389E+06 0.237E-03
0.299E+01 0.500E-06 0.580E+01 0.109E-01 0.100E+06 0.379E+00 0.920E+03 0.954E-02 0.389E+06 0.237E-03
0.301E+01 0.500E-06 0.580E+01 0.277E-01 0.100E+06 0.379E+00 0.920E+03 0.954E-02 0.389E+06 0.237E-03
0.302E+01 0.500E-06 0.580E+01 0.430E-01 0.100E+06 0.379E+00 0.921E+03 0.954E-02 0.389E+06 0.237E-03
0.303E+01 0.500E-06 0.581E+01 0.592E-01 0.100E+06 0.379E+00 0.921E+03 0.955E-02 0.389E+06 0.237E-03
0.304E+01 0.500E-06 0.581E+01 0.776E-01 0.100E+06 0.379E+00 0.921E+03 0.955E-02 0.389E+06 0.237E-03
0.306E+01 0.500E-06 0.581E+01 0.989E-01 0.100E+06 0.380E+00 0.921E+03 0.956E-02 0.389E+06 0.237E-03
0.307E+01 0.500E-06 0.582E+01 0.123E+00 0.100E+06 0.380E+00 0.921E+03 0.957E-02 0.389E+06 0.237E-03
0.308E+01 0.500E-06 0.582E+01 0.151E+00 0.100E+06 0.380E+00 0.921E+03 0.957E-02 0.389E+06 0.237E-03
0.309E+01 0.500E-06 0.583E+01 0.180E+00 0.101E+06 0.380E+00 0.921E+03 0.958E-02 0.389E+06 0.237E-03
0.311E+01 0.500E-06 0.583E+01 0.211E+00 0.101E+06 0.380E+00 0.922E+03 0.959E-02 0.389E+06 0.237E-03
0.312E+01 0.500E-06 0.584E+01 0.244E+00 0.101E+06 0.381E+00 0.922E+03 0.960E-02 0.389E+06 0.237E-03
0.313E+01 0.500E-06 0.585E+01 0.277E+00 0.101E+06 0.381E+00 0.922E+03 0.962E-02 0.389E+06 0.237E-03
0.314E+01 0.500E-06 0.586E+01 0.310E+00 0.101E+06 0.382E+00 0.923E+03 0.963E-02 0.389E+06 0.237E-03
0.316E+01 0.500E-06 0.587E+01 0.330E+00 0.101E+06 0.382E+00 0.923E+03 0.965E-02 0.389E+06 0.237E-03
0.317E+01 0.500E-06 0.587E+01 0.338E+00 0.101E+06 0.382E+00 0.924E+03 0.966E-02 0.389E+06 0.237E-03
0.318E+01 0.500E-06 0.588E+01 0.337E+00 0.102E+06 0.383E+00 0.924E+03 0.967E-02 0.389E+06 0.238E-03
0.319E+01 0.500E-06 0.589E+01 0.326E+00 0.102E+06 0.383E+00 0.924E+03 0.969E-02 0.389E+06 0.238E-03
0.321E+01 0.500E-06 0.590E+01 0.308E+00 0.102E+06 0.384E+00 0.925E+03 0.970E-02 0.389E+06 0.238E-03
0.322E+01 0.500E-06 0.591E+01 0.286E+00 0.102E+06 0.384E+00 0.925E+03 0.971E-02 0.389E+06 0.238E-03
0.323E+01 0.500E-06 0.592E+01 0.262E+00 0.102E+06 0.385E+00 0.926E+03 0.972E-02 0.389E+06 0.238E-03
0.324E+01 0.500E-06 0.593E+01 0.238E+00 0.102E+06 0.385E+00 0.926E+03 0.973E-02 0.389E+06 0.238E-03
0.326E+01 0.500E-06 0.594E+01 0.214E+00 0.102E+06 0.385E+00 0.926E+03 0.974E-02 0.389E+06 0.238E-03
0.327E+01 0.500E-06 0.594E+01 0.189E+00 0.103E+06 0.386E+00 0.927E+03 0.974E-02 0.389E+06 0.238E-03
0.328E+01 0.500E-06 0.595E+01 0.165E+00 0.103E+06 0.386E+00 0.927E+03 0.975E-02 0.389E+06 0.238E-03
0.329E+01 0.500E-06 0.595E+01 0.142E+00 0.103E+06 0.386E+00 0.927E+03 0.976E-02 0.389E+06 0.238E-03
0.331E+01 0.500E-06 0.596E+01 0.120E+00 0.103E+06 0.386E+00 0.927E+03 0.976E-02 0.389E+06 0.238E-03
0.332E+01 0.500E-06 0.596E+01 0.100E+00 0.103E+06 0.386E+00 0.927E+03 0.977E-02 0.389E+06 0.238E-03
0.333E+01 0.500E-06 0.596E+01 0.825E-01 0.103E+06 0.386E+00 0.928E+03 0.977E-02 0.389E+06 0.238E-03
0.334E+01 0.500E-06 0.597E+01 0.666E-01 0.103E+06 0.387E+00 0.928E+03 0.977E-02 0.389E+06 0.238E-03
0.336E+01 0.500E-06 0.597E+01 0.527E-01 0.103E+06 0.387E+00 0.928E+03 0.978E-02 0.389E+06 0.238E-03
0.337E+01 0.500E-06 0.597E+01 0.408E-01 0.103E+06 0.387E+00 0.928E+03 0.978E-02 0.389E+06 0.238E-03
0.338E+01 0.500E-06 0.597E+01 0.307E-01 0.103E+06 0.387E+00 0.928E+03 0.978E-02 0.389E+06 0.238E-03
0.339E+01 0.500E-06 0.597E+01 0.225E-01 0.103E+06 0.387E+00 0.928E+03 0.978E-02 0.389E+06 0.238E-03
0.341E+01 0.500E-06 0.597E+01 0.159E-01 0.103E+06 0.387E+00 0.928E+03 0.978E-02 0.389E+06 0.238E-03
0.342E+01 0.500E-06 0.597E+01 0.106E-01 0.103E+06 0.387E+00 0.928E+03 0.978E-02 0.389E+06 0.238E-03
0.343E+01 0.500E-06 0.598E+01 0.653E-02 0.103E+06 0.387E+00 0.928E+03 0.979E-02 0.389E+06 0.238E-03
0.344E+01 0.500E-06 0.598E+01 0.345E-02 0.103E+06 0.387E+00 0.928E+03 0.979E-02 0.389E+06 0.238E-03
0.346E+01 0.500E-06 0.598E+01 0.121E-02 0.103E+06 0.387E+00 0.928E+03 0.979E-02 0.389E+06 0.238E-03
0.347E+01 0.500E-06 0.598E+01 -.798E-03 0.103E+06 0.387E+00 0.928E+03 0.979E-02 0.389E+06 0.238E-03
0.348E+01 0.500E-06 0.598E+01 -.276E-02 0.103E+06 0.387E+00 0.928E+03 0.979E-02 0.389E+06 0.238E-03
0.349E+01 0.500E-06 0.598E+01 -.471E-02 0.103E+06 0.387E+00 0.928E+03 0.979E-02 0.389E+06 0.238E-03
0.351E+01 0.500E-06 0.598E+01 -.633E-02 0.103E+06 0.387E+00 0.928E+03 0.979E-02 0.389E+06 0.238E-03
0.352E+01 0.500E-06 0.598E+01 -.760E-02 0.103E+06 0.387E+00 0.928E+03 0.979E-02 0.389E+06 0.238E-03
0.353E+01 0.500E-06 0.598E+01 -.852E-02 0.103E+06 0.387E+00 0.928E+03 0.979E-02 0.389E+06 0.238E-03
0.354E+01 0.500E-06 0.598E+01 -.907E-02 0.103E+06 0.387E+00 0.928E+03 0.979E-02 0.389E+06 0.238E-03
0.356E+01 0.500E-06 0.598E+01 -.932E-02 0.103E+06 0.387E+00 0.928E+03 0.979E-02 0.389E+06 0.238E-03
0.357E+01 0.500E-06 0.598E+01 -.933E-02 0.103E+06 0.387E+00 0.928E+03 0.979E-02 0.389E+06 0.238E-03
0.358E+01 0.500E-06 0.598E+01 -.922E-02 0.103E+06 0.387E+00 0.928E+03 0.979E-02 0.389E+06 0.238E-03
0.359E+01 0.500E-06 0.598E+01 -.913E-02 0.103E+06 0.387E+00 0.928E+03 0.979E-02 0.389E+06 0.238E-03
0.361E+01 0.500E-06 0.598E+01 -.912E-02 0.103E+06 0.387E+00 0.928E+03 0.979E-02 0.389E+06 0.238E-03
0.362E+01 0.500E-06 0.598E+01 -.920E-02 0.103E+06 0.387E+00 0.928E+03 0.979E-02 0.389E+06 0.238E-03
0.363E+01 0.500E-06 0.598E+01 -.930E-02 0.103E+06 0.387E+00 0.928E+03 0.979E-02 0.389E+06 0.238E-03
0.364E+01 0.500E-06 0.598E+01 -.937E-02 0.103E+06 0.387E+00 0.928E+03 0.979E-02 0.389E+06 0.238E-03
0.366E+01 0.500E-06 0.598E+01 -.940E-02 0.103E+06 0.387E+00 0.928E+03 0.979E-02 0.389E+06 0.238E-03
0.367E+01 0.500E-06 0.598E+01 -.939E-02 0.103E+06 0.387E+00 0.928E+03 0.979E-02 0.389E+06 0.238E-03
0.368E+01 0.500E-06 0.598E+01 -.937E-02 0.103E+06 0.387E+00 0.928E+03 0.979E-02 0.389E+06 0.238E-03
0.369E+01 0.500E-06 0.598E+01 -.937E-02 0.103E+06 0.387E+00 0.928E+03 0.979E-02 0.389E+06 0.238E-03
0.371E+01 0.500E-06 0.598E+01 -.937E-02 0.103E+06 0.387E+00 0.928E+03 0.979E-02 0.389E+06 0.238E-03
0.372E+01 0.500E-06 0.598E+01 -.938E-02 0.103E+06 0.387E+00 0.928E+03 0.979E-02 0.389E+06 0.238E-03