 title="contour"
 variables="x","y","u","v",
 "p","den","T","mach","entropy","mu"
 zone i=         400  j=         100  f=point
0.625E-02 0.500E-06 0.100E+04 -.233E-10 0.101E+06 0.706E+01 0.500E+02 0.706E+01 0.657E+04 0.193E-04
0.188E-01 0.500E-06 0.100E+04 -.701E-10 0.101E+06 0.706E+01 0.500E+02 0.706E+01 0.657E+04 0.193E-04
0.312E-01 0.500E-06 0.100E+04 0.154E-10 0.101E+06 0.706E+01 0.500E+02 0.706E+01 0.657E+04 0.193E-04
0.437E-01 0.500E-06 0.100E+04 0.168E-11 0.101E+06 0.706E+01 0.500E+02 0.706E+01 0.657E+04 0.193E-04
0.563E-01 0.500E-06 0.100E+04 0.499E-10 0.101E+06 0.706E+01 0.500E+02 0.706E+01 0.657E+04 0.193E-04
0.688E-01 0.500E-06 0.100E+04 0.534E-10 0.101E+06 0.706E+01 0.500E+02 0.706E+01 0.657E+04 0.193E-04
0.812E-01 0.500E-06 0.100E+04 0.642E-10 0.101E+06 0.706E+01 0.500E+02 0.706E+01 0.657E+04 0.193E-04
0.938E-01 0.500E-06 0.100E+04 -.317E-10 0.101E+06 0.706E+01 0.500E+02 0.706E+01 0.657E+04 0.193E-04
0.106E+00 0.500E-06 0.100E+04 0.211E-10 0.101E+06 0.706E+01 0.500E+02 0.706E+01 0.657E+04 0.193E-04
0.119E+00 0.500E-06 0.100E+04 0.729E-10 0.101E+06 0.706E+01 0.500E+02 0.706E+01 0.657E+04 0.193E-04
0.131E+00 0.500E-06 0.100E+04 -.210E-10 0.101E+06 0.706E+01 0.500E+02 0.706E+01 0.657E+04 0.193E-04
0.144E+00 0.500E-06 0.100E+04 -.472E-10 0.101E+06 0.706E+01 0.500E+02 0.706E+01 0.657E+04 0.193E-04
0.156E+00 0.500E-06 0.100E+04 -.613E-10 0.101E+06 0.706E+01 0.500E+02 0.706E+01 0.657E+04 0.193E-04
0.169E+00 0.500E-06 0.100E+04 -.536E-10 0.101E+06 0.706E+01 0.500E+02 0.706E+01 0.657E+04 0.193E-04
0.181E+00 0.500E-06 0.100E+04 -.472E-10 0.101E+06 0.706E+01 0.500E+02 0.706E+01 0.657E+04 0.193E-04
0.194E+00 0.500E-06 0.100E+04 -.597E-10 0.101E+06 0.706E+01 0.500E+02 0.706E+01 0.657E+04 0.193E-04
0.206E+00 0.500E-06 0.100E+04 -.646E-10 0.101E+06 0.706E+01 0.500E+02 0.706E+01 0.657E+04 0.193E-04
0.219E+00 0.500E-06 0.100E+04 -.691E-10 0.101E+06 0.706E+01 0.500E+02 0.706E+01 0.657E+04 0.193E-04
0.231E+00 0.500E-06 0.100E+04 -.709E-10 0.101E+06 0.706E+01 0.500E+02 0.706E+01 0.657E+04 0.193E-04
0.244E+00 0.500E-06 0.100E+04 -.619E-10 0.101E+06 0.706E+01 0.500E+02 0.706E+01 0.657E+04 0.193E-04
0.256E+00 0.500E-06 0.100E+04 -.602E-10 0.101E+06 0.706E+01 0.500E+02 0.706E+01 0.657E+04 0.193E-04
0.269E+00 0.500E-06 0.100E+04 -.492E-10 0.101E+06 0.706E+01 0.500E+02 0.706E+01 0.657E+04 0.193E-04
0.281E+00 0.500E-06 0.100E+04 -.684E-10 0.101E+06 0.706E+01 0.500E+02 0.706E+01 0.657E+04 0.193E-04
0.294E+00 0.500E-06 0.100E+04 -.609E-10 0.101E+06 0.706E+01 0.500E+02 0.706E+01 0.657E+04 0.193E-04
0.306E+00 0.500E-06 0.100E+04 -.742E-10 0.101E+06 0.706E+01 0.500E+02 0.706E+01 0.657E+04 0.193E-04
0.319E+00 0.500E-06 0.100E+04 -.612E-10 0.101E+06 0.706E+01 0.500E+02 0.706E+01 0.657E+04 0.193E-04
0.331E+00 0.500E-06 0.100E+04 -.732E-10 0.101E+06 0.706E+01 0.500E+02 0.706E+01 0.657E+04 0.193E-04
0.344E+00 0.500E-06 0.100E+04 -.744E-10 0.101E+06 0.706E+01 0.500E+02 0.706E+01 0.657E+04 0.193E-04
0.356E+00 0.500E-06 0.100E+04 -.763E-10 0.101E+06 0.706E+01 0.500E+02 0.706E+01 0.657E+04 0.193E-04
0.369E+00 0.500E-06 0.100E+04 -.617E-10 0.101E+06 0.706E+01 0.500E+02 0.706E+01 0.657E+04 0.193E-04
0.381E+00 0.500E-06 0.100E+04 -.659E-10 0.101E+06 0.706E+01 0.500E+02 0.706E+01 0.657E+04 0.193E-04
0.394E+00 0.500E-06 0.100E+04 -.459E-10 0.101E+06 0.706E+01 0.500E+02 0.706E+01 0.657E+04 0.193E-04
0.406E+00 0.500E-06 0.100E+04 -.824E-10 0.101E+06 0.706E+01 0.500E+02 0.706E+01 0.657E+04 0.193E-04
0.419E+00 0.500E-06 0.100E+04 -.666E-10 0.101E+06 0.706E+01 0.500E+02 0.706E+01 0.657E+04 0.193E-04
0.431E+00 0.500E-06 0.100E+04 -.685E-10 0.101E+06 0.706E+01 0.500E+02 0.706E+01 0.657E+04 0.193E-04
0.444E+00 0.500E-06 0.100E+04 -.551E-10 0.101E+06 0.706E+01 0.500E+02 0.706E+01 0.657E+04 0.193E-04
0.456E+00 0.500E-06 0.100E+04 -.863E-10 0.101E+06 0.706E+01 0.500E+02 0.706E+01 0.657E+04 0.193E-04
0.469E+00 0.500E-06 0.100E+04 -.833E-10 0.101E+06 0.706E+01 0.500E+02 0.706E+01 0.657E+04 0.193E-04
0.481E+00 0.500E-06 0.100E+04 -.872E-10 0.101E+06 0.706E+01 0.500E+02 0.706E+01 0.657E+04 0.193E-04
0.494E+00 0.500E-06 0.100E+04 -.709E-10 0.101E+06 0.706E+01 0.500E+02 0.706E+01 0.657E+04 0.193E-04
0.506E+00 0.500E-06 0.100E+04 -.742E-10 0.101E+06 0.706E+01 0.500E+02 0.706E+01 0.657E+04 0.193E-04
0.519E+00 0.500E-06 0.100E+04 0.786E-11 0.101E+06 0.706E+01 0.500E+02 0.706E+01 0.657E+04 0.193E-04
0.531E+00 0.500E-06 0.100E+04 -.362E-10 0.101E+06 0.706E+01 0.500E+02 0.706E+01 0.657E+04 0.193E-04
0.544E+00 0.500E-06 0.100E+04 0.253E-10 0.101E+06 0.706E+01 0.500E+02 0.706E+01 0.657E+04 0.193E-04
0.556E+00 0.500E-06 0.100E+04 -.313E-10 0.101E+06 0.706E+01 0.500E+02 0.706E+01 0.657E+04 0.193E-04
0.569E+00 0.500E-06 0.100E+04 -.867E-10 0.101E+06 0.706E+01 0.500E+02 0.706E+01 0.657E+04 0.193E-04
0.581E+00 0.500E-06 0.100E+04 0.573E-12 0.101E+06 0.706E+01 0.500E+02 0.706E+01 0.657E+04 0.193E-04
0.594E+00 0.500E-06 0.100E+04 -.547E-10 0.101E+06 0.706E+01 0.500E+02 0.706E+01 0.657E+04 0.193E-04
0.606E+00 0.500E-06 0.100E+04 0.104E-10 0.101E+06 0.706E+01 0.500E+02 0.706E+01 0.657E+04 0.193E-04
0.619E+00 0.500E-06 0.100E+04 -.277E-10 0.101E+06 0.706E+01 0.500E+02 0.706E+01 0.657E+04 0.193E-04
0.631E+00 0.500E-06 0.100E+04 -.512E-10 0.101E+06 0.706E+01 0.500E+02 0.706E+01 0.657E+04 0.193E-04
0.644E+00 0.500E-06 0.100E+04 0.119E-10 0.101E+06 0.706E+01 0.500E+02 0.706E+01 0.657E+04 0.193E-04
0.656E+00 0.500E-06 0.100E+04 -.438E-10 0.101E+06 0.706E+01 0.500E+02 0.706E+01 0.657E+04 0.193E-04
0.669E+00 0.500E-06 0.100E+04 0.819E-11 0.101E+06 0.706E+01 0.500E+02 0.706E+01 0.657E+04 0.193E-04
0.681E+00 0.500E-06 0.100E+04 -.449E-10 0.101E+06 0.706E+01 0.500E+02 0.706E+01 0.657E+04 0.193E-04
0.694E+00 0.500E-06 0.100E+04 -.854E-10 0.101E+06 0.706E+01 0.500E+02 0.706E+01 0.657E+04 0.193E-04
0.706E+00 0.500E-06 0.100E+04 0.965E-11 0.101E+06 0.706E+01 0.500E+02 0.706E+01 0.657E+04 0.193E-04
0.719E+00 0.500E-06 0.100E+04 -.665E-10 0.101E+06 0.706E+01 0.500E+02 0.706E+01 0.657E+04 0.193E-04
0.731E+00 0.500E-06 0.100E+04 0.226E-10 0.101E+06 0.706E+01 0.500E+02 0.706E+01 0.657E+04 0.193E-04
0.744E+00 0.500E-06 0.100E+04 -.249E-10 0.101E+06 0.706E+01 0.500E+02 0.706E+01 0.657E+04 0.193E-04
0.756E+00 0.500E-06 0.100E+04 -.674E-10 0.101E+06 0.706E+01 0.500E+02 0.706E+01 0.657E+04 0.193E-04
0.769E+00 0.500E-06 0.100E+04 0.125E-10 0.101E+06 0.706E+01 0.500E+02 0.706E+01 0.657E+04 0.193E-04
0.781E+00 0.500E-06 0.100E+04 -.438E-10 0.101E+06 0.706E+01 0.500E+02 0.706E+01 0.657E+04 0.193E-04
0.794E+00 0.500E-06 0.100E+04 0.133E-11 0.101E+06 0.706E+01 0.500E+02 0.706E+01 0.657E+04 0.193E-04
0.806E+00 0.500E-06 0.100E+04 -.531E-10 0.101E+06 0.706E+01 0.500E+02 0.706E+01 0.657E+04 0.193E-04
0.819E+00 0.500E-06 0.100E+04 -.105E-09 0.101E+06 0.706E+01 0.500E+02 0.706E+01 0.657E+04 0.193E-04
0.831E+00 0.500E-06 0.100E+04 -.134E-10 0.101E+06 0.706E+01 0.500E+02 0.706E+01 0.657E+04 0.193E-04
0.844E+00 0.500E-06 0.100E+04 -.851E-10 0.101E+06 0.706E+01 0.500E+02 0.706E+01 0.657E+04 0.193E-04
0.856E+00 0.500E-06 0.100E+04 0.110E-10 0.101E+06 0.706E+01 0.500E+02 0.706E+01 0.657E+04 0.193E-04
0.869E+00 0.500E-06 0.100E+04 -.497E-10 0.101E+06 0.706E+01 0.500E+02 0.706E+01 0.657E+04 0.193E-04
0.881E+00 0.500E-06 0.100E+04 -.627E-10 0.101E+06 0.706E+01 0.500E+02 0.706E+01 0.657E+04 0.193E-04
0.894E+00 0.500E-06 0.100E+04 0.726E-11 0.101E+06 0.706E+01 0.500E+02 0.706E+01 0.657E+04 0.193E-04
0.906E+00 0.500E-06 0.100E+04 -.522E-10 0.101E+06 0.706E+01 0.500E+02 0.706E+01 0.657E+04 0.193E-04
0.919E+00 0.500E-06 0.100E+04 0.129E-10 0.101E+06 0.706E+01 0.500E+02 0.706E+01 0.657E+04 0.193E-04
0.931E+00 0.500E-06 0.100E+04 -.429E-10 0.101E+06 0.706E+01 0.500E+02 0.706E+01 0.657E+04 0.193E-04
0.944E+00 0.500E-06 0.100E+04 -.876E-10 0.101E+06 0.706E+01 0.500E+02 0.706E+01 0.657E+04 0.193E-04
0.956E+00 0.500E-06 0.100E+04 0.183E-11 0.101E+06 0.706E+01 0.500E+02 0.706E+01 0.657E+04 0.193E-04
0.969E+00 0.500E-06 0.100E+04 -.534E-10 0.101E+06 0.706E+01 0.500E+02 0.706E+01 0.657E+04 0.193E-04
0.981E+00 0.500E-06 0.100E+04 -.693E-09 0.101E+06 0.706E+01 0.500E+02 0.706E+01 0.657E+04 0.193E-04
0.994E+00 0.500E-06 0.100E+04 -.997E-02 0.101E+06 0.706E+01 0.500E+02 0.706E+01 0.657E+04 0.193E-04
0.101E+01 0.500E-06 0.199E+02 0.474E+00 0.127E+06 0.611E+00 0.722E+03 0.370E-01 0.252E+06 0.204E-03
0.102E+01 0.500E-06 0.350E+01 0.744E-02 0.110E+06 0.616E+00 0.624E+03 0.699E-02 0.217E+06 0.186E-03
0.103E+01 0.500E-06 0.243E+01 0.592E-02 0.105E+06 0.619E+00 0.593E+03 0.497E-02 0.206E+06 0.180E-03
0.104E+01 0.500E-06 0.224E+01 -.338E-01 0.103E+06 0.614E+00 0.588E+03 0.462E-02 0.205E+06 0.178E-03
0.106E+01 0.500E-06 0.220E+01 0.220E-01 0.103E+06 0.613E+00 0.587E+03 0.454E-02 0.205E+06 0.178E-03
0.107E+01 0.500E-06 0.218E+01 0.928E-03 0.103E+06 0.611E+00 0.586E+03 0.450E-02 0.205E+06 0.178E-03
0.108E+01 0.500E-06 0.218E+01 -.179E-01 0.103E+06 0.610E+00 0.586E+03 0.449E-02 0.205E+06 0.178E-03
0.109E+01 0.500E-06 0.217E+01 -.619E-02 0.103E+06 0.611E+00 0.586E+03 0.448E-02 0.205E+06 0.178E-03
0.111E+01 0.500E-06 0.217E+01 0.429E-02 0.103E+06 0.610E+00 0.585E+03 0.448E-02 0.205E+06 0.178E-03
0.112E+01 0.500E-06 0.217E+01 -.197E-02 0.103E+06 0.610E+00 0.585E+03 0.448E-02 0.205E+06 0.178E-03
0.113E+01 0.500E-06 0.217E+01 -.721E-02 0.103E+06 0.610E+00 0.585E+03 0.448E-02 0.205E+06 0.178E-03
0.114E+01 0.500E-06 0.217E+01 -.558E-02 0.102E+06 0.610E+00 0.585E+03 0.448E-02 0.205E+06 0.178E-03
0.116E+01 0.500E-06 0.217E+01 -.643E-03 0.102E+06 0.610E+00 0.585E+03 0.447E-02 0.205E+06 0.178E-03
0.117E+01 0.500E-06 0.217E+01 -.160E-02 0.102E+06 0.610E+00 0.585E+03 0.447E-02 0.205E+06 0.178E-03
0.118E+01 0.500E-06 0.217E+01 -.391E-02 0.102E+06 0.610E+00 0.585E+03 0.447E-02 0.205E+06 0.178E-03
0.119E+01 0.500E-06 0.217E+01 -.417E-02 0.102E+06 0.610E+00 0.585E+03 0.447E-02 0.205E+06 0.178E-03
0.121E+01 0.500E-06 0.217E+01 -.239E-02 0.102E+06 0.610E+00 0.585E+03 0.447E-02 0.205E+06 0.178E-03
0.122E+01 0.500E-06 0.217E+01 0.787E-05 0.102E+06 0.610E+00 0.585E+03 0.447E-02 0.205E+06 0.178E-03
0.123E+01 0.500E-06 0.217E+01 -.106E-02 0.102E+06 0.610E+00 0.585E+03 0.447E-02 0.205E+06 0.178E-03
0.124E+01 0.500E-06 0.217E+01 -.289E-02 0.102E+06 0.610E+00 0.585E+03 0.447E-02 0.205E+06 0.178E-03
0.126E+01 0.500E-06 0.217E+01 -.524E-02 0.102E+06 0.610E+00 0.585E+03 0.447E-02 0.205E+06 0.178E-03
0.127E+01 0.500E-06 0.217E+01 -.551E-02 0.102E+06 0.610E+00 0.585E+03 0.447E-02 0.205E+06 0.178E-03
0.128E+01 0.500E-06 0.217E+01 -.417E-02 0.102E+06 0.610E+00 0.585E+03 0.447E-02 0.205E+06 0.178E-03
0.129E+01 0.500E-06 0.217E+01 -.202E-02 0.102E+06 0.610E+00 0.585E+03 0.447E-02 0.205E+06 0.178E-03
0.131E+01 0.500E-06 0.217E+01 0.110E-02 0.102E+06 0.610E+00 0.585E+03 0.447E-02 0.205E+06 0.178E-03
0.132E+01 0.500E-06 0.217E+01 0.276E-02 0.102E+06 0.610E+00 0.585E+03 0.447E-02 0.205E+06 0.178E-03
0.133E+01 0.500E-06 0.217E+01 0.291E-02 0.102E+06 0.610E+00 0.585E+03 0.447E-02 0.205E+06 0.178E-03
0.134E+01 0.500E-06 0.217E+01 0.170E-02 0.102E+06 0.610E+00 0.585E+03 0.447E-02 0.205E+06 0.178E-03
0.136E+01 0.500E-06 0.217E+01 -.471E-03 0.102E+06 0.610E+00 0.585E+03 0.447E-02 0.205E+06 0.178E-03
0.137E+01 0.500E-06 0.217E+01 -.219E-02 0.102E+06 0.609E+00 0.585E+03 0.447E-02 0.205E+06 0.178E-03
0.138E+01 0.500E-06 0.217E+01 -.346E-02 0.102E+06 0.609E+00 0.585E+03 0.447E-02 0.205E+06 0.178E-03
0.139E+01 0.500E-06 0.217E+01 -.395E-02 0.102E+06 0.609E+00 0.585E+03 0.447E-02 0.205E+06 0.178E-03
0.141E+01 0.500E-06 0.217E+01 -.396E-02 0.102E+06 0.609E+00 0.585E+03 0.447E-02 0.205E+06 0.178E-03
0.142E+01 0.500E-06 0.217E+01 -.352E-02 0.102E+06 0.610E+00 0.585E+03 0.447E-02 0.205E+06 0.178E-03
0.143E+01 0.500E-06 0.217E+01 -.302E-02 0.102E+06 0.610E+00 0.585E+03 0.447E-02 0.205E+06 0.178E-03
0.144E+01 0.500E-06 0.217E+01 -.244E-02 0.102E+06 0.610E+00 0.585E+03 0.447E-02 0.205E+06 0.178E-03
0.146E+01 0.500E-06 0.217E+01 -.163E-02 0.102E+06 0.609E+00 0.585E+03 0.447E-02 0.205E+06 0.178E-03
0.147E+01 0.500E-06 0.217E+01 -.130E-02 0.102E+06 0.609E+00 0.585E+03 0.447E-02 0.205E+06 0.178E-03
0.148E+01 0.500E-06 0.217E+01 -.115E-02 0.102E+06 0.609E+00 0.585E+03 0.447E-02 0.205E+06 0.178E-03
0.149E+01 0.500E-06 0.217E+01 -.119E-02 0.102E+06 0.609E+00 0.585E+03 0.447E-02 0.205E+06 0.178E-03
0.151E+01 0.500E-06 0.217E+01 -.120E-02 0.102E+06 0.609E+00 0.585E+03 0.447E-02 0.205E+06 0.178E-03
0.152E+01 0.500E-06 0.217E+01 -.140E-02 0.102E+06 0.609E+00 0.585E+03 0.447E-02 0.205E+06 0.178E-03
0.153E+01 0.500E-06 0.217E+01 -.190E-02 0.102E+06 0.609E+00 0.585E+03 0.447E-02 0.205E+06 0.178E-03
0.154E+01 0.500E-06 0.217E+01 -.229E-02 0.102E+06 0.610E+00 0.585E+03 0.447E-02 0.205E+06 0.178E-03
0.156E+01 0.500E-06 0.217E+01 -.257E-02 0.102E+06 0.609E+00 0.585E+03 0.447E-02 0.205E+06 0.178E-03
0.157E+01 0.500E-06 0.217E+01 -.295E-02 0.102E+06 0.609E+00 0.585E+03 0.447E-02 0.205E+06 0.178E-03
0.158E+01 0.500E-06 0.217E+01 -.312E-02 0.102E+06 0.609E+00 0.585E+03 0.447E-02 0.205E+06 0.178E-03
0.159E+01 0.500E-06 0.217E+01 -.296E-02 0.102E+06 0.609E+00 0.585E+03 0.447E-02 0.205E+06 0.178E-03
0.161E+01 0.500E-06 0.217E+01 -.276E-02 0.102E+06 0.609E+00 0.585E+03 0.447E-02 0.205E+06 0.178E-03
0.162E+01 0.500E-06 0.217E+01 -.280E-02 0.102E+06 0.609E+00 0.585E+03 0.447E-02 0.205E+06 0.178E-03
0.163E+01 0.500E-06 0.217E+01 -.306E-02 0.102E+06 0.609E+00 0.585E+03 0.447E-02 0.205E+06 0.178E-03
0.164E+01 0.500E-06 0.217E+01 -.391E-02 0.102E+06 0.609E+00 0.585E+03 0.447E-02 0.205E+06 0.178E-03
0.166E+01 0.500E-06 0.217E+01 -.514E-02 0.102E+06 0.609E+00 0.585E+03 0.447E-02 0.205E+06 0.178E-03
0.167E+01 0.500E-06 0.217E+01 -.579E-02 0.102E+06 0.609E+00 0.585E+03 0.447E-02 0.205E+06 0.178E-03
0.168E+01 0.500E-06 0.217E+01 -.612E-02 0.102E+06 0.609E+00 0.585E+03 0.447E-02 0.205E+06 0.178E-03
0.169E+01 0.500E-06 0.217E+01 -.566E-02 0.102E+06 0.609E+00 0.585E+03 0.447E-02 0.205E+06 0.178E-03
0.171E+01 0.500E-06 0.217E+01 -.515E-02 0.102E+06 0.609E+00 0.585E+03 0.447E-02 0.205E+06 0.178E-03
0.172E+01 0.500E-06 0.217E+01 -.474E-02 0.102E+06 0.609E+00 0.585E+03 0.447E-02 0.205E+06 0.178E-03
0.173E+01 0.500E-06 0.217E+01 -.461E-02 0.102E+06 0.609E+00 0.585E+03 0.447E-02 0.205E+06 0.178E-03
0.174E+01 0.500E-06 0.217E+01 -.480E-02 0.102E+06 0.609E+00 0.585E+03 0.447E-02 0.205E+06 0.178E-03
0.176E+01 0.500E-06 0.217E+01 -.528E-02 0.102E+06 0.609E+00 0.585E+03 0.447E-02 0.205E+06 0.178E-03
0.177E+01 0.500E-06 0.217E+01 -.614E-02 0.102E+06 0.609E+00 0.585E+03 0.447E-02 0.205E+06 0.178E-03
0.178E+01 0.500E-06 0.217E+01 -.619E-02 0.102E+06 0.609E+00 0.585E+03 0.447E-02 0.205E+06 0.178E-03
0.179E+01 0.500E-06 0.217E+01 -.599E-02 0.102E+06 0.609E+00 0.585E+03 0.447E-02 0.205E+06 0.178E-03
0.181E+01 0.500E-06 0.217E+01 -.552E-02 0.102E+06 0.609E+00 0.585E+03 0.447E-02 0.205E+06 0.178E-03
0.182E+01 0.500E-06 0.217E+01 -.482E-02 0.102E+06 0.609E+00 0.585E+03 0.447E-02 0.205E+06 0.178E-03
0.183E+01 0.500E-06 0.217E+01 -.421E-02 0.102E+06 0.609E+00 0.585E+03 0.447E-02 0.205E+06 0.178E-03
0.184E+01 0.500E-06 0.217E+01 -.370E-02 0.102E+06 0.609E+00 0.585E+03 0.447E-02 0.205E+06 0.178E-03
0.186E+01 0.500E-06 0.217E+01 -.333E-02 0.102E+06 0.609E+00 0.585E+03 0.447E-02 0.205E+06 0.178E-03
0.187E+01 0.500E-06 0.217E+01 -.332E-02 0.102E+06 0.609E+00 0.585E+03 0.447E-02 0.205E+06 0.178E-03
0.188E+01 0.500E-06 0.217E+01 -.328E-02 0.102E+06 0.609E+00 0.585E+03 0.447E-02 0.205E+06 0.178E-03
0.189E+01 0.500E-06 0.217E+01 -.324E-02 0.102E+06 0.609E+00 0.585E+03 0.447E-02 0.205E+06 0.178E-03
0.191E+01 0.500E-06 0.217E+01 -.326E-02 0.102E+06 0.609E+00 0.585E+03 0.447E-02 0.205E+06 0.178E-03
0.192E+01 0.500E-06 0.217E+01 -.324E-02 0.102E+06 0.609E+00 0.585E+03 0.447E-02 0.205E+06 0.178E-03
0.193E+01 0.500E-06 0.217E+01 -.343E-02 0.102E+06 0.609E+00 0.585E+03 0.447E-02 0.205E+06 0.178E-03
0.194E+01 0.500E-06 0.217E+01 -.346E-02 0.102E+06 0.609E+00 0.585E+03 0.447E-02 0.205E+06 0.178E-03
0.196E+01 0.500E-06 0.217E+01 -.335E-02 0.102E+06 0.609E+00 0.585E+03 0.447E-02 0.205E+06 0.178E-03
0.197E+01 0.500E-06 0.217E+01 -.326E-02 0.102E+06 0.609E+00 0.585E+03 0.447E-02 0.205E+06 0.178E-03
0.198E+01 0.500E-06 0.217E+01 -.340E-02 0.102E+06 0.609E+00 0.585E+03 0.447E-02 0.205E+06 0.178E-03
0.199E+01 0.500E-06 0.217E+01 -.343E-02 0.102E+06 0.609E+00 0.585E+03 0.447E-02 0.205E+06 0.178E-03
0.201E+01 0.500E-06 0.217E+01 -.338E-02 0.102E+06 0.609E+00 0.585E+03 0.447E-02 0.205E+06 0.178E-03
0.202E+01 0.500E-06 0.217E+01 -.325E-02 0.102E+06 0.609E+00 0.585E+03 0.447E-02 0.205E+06 0.178E-03
0.203E+01 0.500E-06 0.217E+01 -.320E-02 0.102E+06 0.609E+00 0.585E+03 0.447E-02 0.205E+06 0.178E-03
0.204E+01 0.500E-06 0.217E+01 -.318E-02 0.102E+06 0.609E+00 0.585E+03 0.447E-02 0.205E+06 0.178E-03
0.206E+01 0.500E-06 0.217E+01 -.335E-02 0.102E+06 0.609E+00 0.585E+03 0.447E-02 0.205E+06 0.178E-03
0.207E+01 0.500E-06 0.217E+01 -.343E-02 0.102E+06 0.609E+00 0.585E+03 0.447E-02 0.205E+06 0.178E-03
0.208E+01 0.500E-06 0.217E+01 -.335E-02 0.102E+06 0.609E+00 0.585E+03 0.447E-02 0.205E+06 0.178E-03
0.209E+01 0.500E-06 0.217E+01 -.328E-02 0.102E+06 0.609E+00 0.585E+03 0.447E-02 0.205E+06 0.178E-03
0.211E+01 0.500E-06 0.217E+01 -.332E-02 0.102E+06 0.609E+00 0.585E+03 0.447E-02 0.205E+06 0.178E-03
0.212E+01 0.500E-06 0.217E+01 -.341E-02 0.102E+06 0.609E+00 0.585E+03 0.447E-02 0.205E+06 0.178E-03
0.213E+01 0.500E-06 0.217E+01 -.351E-02 0.102E+06 0.609E+00 0.585E+03 0.447E-02 0.205E+06 0.178E-03
0.214E+01 0.500E-06 0.217E+01 -.351E-02 0.102E+06 0.609E+00 0.585E+03 0.447E-02 0.205E+06 0.178E-03
0.216E+01 0.500E-06 0.217E+01 -.346E-02 0.102E+06 0.609E+00 0.585E+03 0.447E-02 0.205E+06 0.178E-03
0.217E+01 0.500E-06 0.217E+01 -.336E-02 0.102E+06 0.609E+00 0.585E+03 0.447E-02 0.205E+06 0.178E-03
0.218E+01 0.500E-06 0.217E+01 -.325E-02 0.102E+06 0.609E+00 0.585E+03 0.447E-02 0.205E+06 0.178E-03
0.219E+01 0.500E-06 0.217E+01 -.318E-02 0.102E+06 0.609E+00 0.585E+03 0.447E-02 0.205E+06 0.178E-03
0.221E+01 0.500E-06 0.217E+01 -.312E-02 0.102E+06 0.609E+00 0.585E+03 0.447E-02 0.205E+06 0.178E-03
0.222E+01 0.500E-06 0.217E+01 -.308E-02 0.102E+06 0.609E+00 0.585E+03 0.447E-02 0.205E+06 0.178E-03
0.223E+01 0.500E-06 0.217E+01 -.304E-02 0.102E+06 0.609E+00 0.585E+03 0.447E-02 0.205E+06 0.178E-03
0.224E+01 0.500E-06 0.217E+01 -.308E-02 0.102E+06 0.609E+00 0.585E+03 0.447E-02 0.205E+06 0.178E-03
0.226E+01 0.500E-06 0.217E+01 -.310E-02 0.102E+06 0.609E+00 0.585E+03 0.447E-02 0.205E+06 0.178E-03
0.227E+01 0.500E-06 0.217E+01 -.310E-02 0.102E+06 0.609E+00 0.585E+03 0.447E-02 0.205E+06 0.178E-03
0.228E+01 0.500E-06 0.217E+01 -.312E-02 0.102E+06 0.609E+00 0.585E+03 0.447E-02 0.205E+06 0.178E-03
0.229E+01 0.500E-06 0.217E+01 -.317E-02 0.102E+06 0.609E+00 0.585E+03 0.447E-02 0.205E+06 0.178E-03
0.231E+01 0.500E-06 0.217E+01 -.320E-02 0.102E+06 0.609E+00 0.585E+03 0.447E-02 0.205E+06 0.178E-03
0.232E+01 0.500E-06 0.217E+01 -.325E-02 0.102E+06 0.609E+00 0.585E+03 0.447E-02 0.205E+06 0.178E-03
0.233E+01 0.500E-06 0.217E+01 -.331E-02 0.102E+06 0.609E+00 0.585E+03 0.447E-02 0.205E+06 0.178E-03
0.234E+01 0.500E-06 0.217E+01 -.334E-02 0.102E+06 0.609E+00 0.585E+03 0.447E-02 0.205E+06 0.178E-03
0.236E+01 0.500E-06 0.217E+01 -.335E-02 0.102E+06 0.609E+00 0.585E+03 0.447E-02 0.205E+06 0.178E-03
0.237E+01 0.500E-06 0.217E+01 -.337E-02 0.102E+06 0.609E+00 0.585E+03 0.447E-02 0.205E+06 0.178E-03
0.238E+01 0.500E-06 0.217E+01 -.341E-02 0.102E+06 0.609E+00 0.585E+03 0.447E-02 0.205E+06 0.178E-03
0.239E+01 0.500E-06 0.217E+01 -.342E-02 0.102E+06 0.609E+00 0.585E+03 0.447E-02 0.205E+06 0.178E-03
0.241E+01 0.500E-06 0.217E+01 -.341E-02 0.102E+06 0.609E+00 0.585E+03 0.447E-02 0.205E+06 0.178E-03
0.242E+01 0.500E-06 0.217E+01 -.339E-02 0.102E+06 0.609E+00 0.585E+03 0.447E-02 0.205E+06 0.178E-03
0.243E+01 0.500E-06 0.217E+01 -.337E-02 0.102E+06 0.609E+00 0.585E+03 0.447E-02 0.205E+06 0.178E-03
0.244E+01 0.500E-06 0.217E+01 -.335E-02 0.102E+06 0.609E+00 0.585E+03 0.447E-02 0.205E+06 0.178E-03
0.246E+01 0.500E-06 0.217E+01 -.334E-02 0.102E+06 0.609E+00 0.585E+03 0.447E-02 0.205E+06 0.178E-03
0.247E+01 0.500E-06 0.217E+01 -.333E-02 0.102E+06 0.609E+00 0.585E+03 0.447E-02 0.205E+06 0.178E-03
0.248E+01 0.500E-06 0.217E+01 -.331E-02 0.102E+06 0.609E+00 0.585E+03 0.447E-02 0.205E+06 0.178E-03
0.249E+01 0.500E-06 0.217E+01 -.335E-02 0.102E+06 0.609E+00 0.585E+03 0.447E-02 0.205E+06 0.178E-03
0.251E+01 0.500E-06 0.217E+01 -.340E-02 0.102E+06 0.609E+00 0.585E+03 0.447E-02 0.205E+06 0.178E-03
0.252E+01 0.500E-06 0.217E+01 -.342E-02 0.102E+06 0.609E+00 0.585E+03 0.447E-02 0.205E+06 0.178E-03
0.253E+01 0.500E-06 0.217E+01 -.345E-02 0.102E+06 0.609E+00 0.585E+03 0.447E-02 0.205E+06 0.178E-03
0.254E+01 0.500E-06 0.217E+01 -.348E-02 0.102E+06 0.609E+00 0.585E+03 0.447E-02 0.205E+06 0.178E-03
0.256E+01 0.500E-06 0.217E+01 -.350E-02 0.102E+06 0.609E+00 0.585E+03 0.447E-02 0.205E+06 0.178E-03
0.257E+01 0.500E-06 0.217E+01 -.352E-02 0.102E+06 0.609E+00 0.585E+03 0.447E-02 0.205E+06 0.178E-03
0.258E+01 0.500E-06 0.217E+01 -.354E-02 0.102E+06 0.609E+00 0.585E+03 0.447E-02 0.205E+06 0.178E-03
0.259E+01 0.500E-06 0.217E+01 -.354E-02 0.102E+06 0.609E+00 0.585E+03 0.447E-02 0.205E+06 0.178E-03
0.261E+01 0.500E-06 0.217E+01 -.354E-02 0.102E+06 0.609E+00 0.585E+03 0.447E-02 0.205E+06 0.178E-03
0.262E+01 0.500E-06 0.217E+01 -.351E-02 0.102E+06 0.609E+00 0.585E+03 0.447E-02 0.205E+06 0.178E-03
0.263E+01 0.500E-06 0.217E+01 -.348E-02 0.102E+06 0.609E+00 0.585E+03 0.447E-02 0.205E+06 0.178E-03
0.264E+01 0.500E-06 0.217E+01 -.344E-02 0.102E+06 0.609E+00 0.585E+03 0.447E-02 0.205E+06 0.178E-03
0.266E+01 0.500E-06 0.217E+01 -.339E-02 0.102E+06 0.609E+00 0.585E+03 0.447E-02 0.205E+06 0.178E-03
0.267E+01 0.500E-06 0.217E+01 -.327E-02 0.102E+06 0.609E+00 0.585E+03 0.447E-02 0.205E+06 0.178E-03
0.268E+01 0.500E-06 0.217E+01 -.316E-02 0.102E+06 0.609E+00 0.585E+03 0.447E-02 0.205E+06 0.178E-03
0.269E+01 0.500E-06 0.217E+01 -.311E-02 0.102E+06 0.609E+00 0.585E+03 0.447E-02 0.205E+06 0.178E-03
0.271E+01 0.500E-06 0.217E+01 -.311E-02 0.102E+06 0.609E+00 0.585E+03 0.447E-02 0.205E+06 0.178E-03
0.272E+01 0.500E-06 0.217E+01 -.317E-02 0.102E+06 0.609E+00 0.585E+03 0.447E-02 0.205E+06 0.178E-03
0.273E+01 0.500E-06 0.217E+01 -.330E-02 0.102E+06 0.609E+00 0.585E+03 0.447E-02 0.205E+06 0.178E-03
0.274E+01 0.500E-06 0.217E+01 -.345E-02 0.102E+06 0.609E+00 0.585E+03 0.447E-02 0.205E+06 0.178E-03
0.276E+01 0.500E-06 0.217E+01 -.363E-02 0.102E+06 0.609E+00 0.585E+03 0.447E-02 0.205E+06 0.178E-03
0.277E+01 0.500E-06 0.217E+01 -.390E-02 0.102E+06 0.609E+00 0.585E+03 0.447E-02 0.205E+06 0.178E-03
0.278E+01 0.500E-06 0.217E+01 -.411E-02 0.102E+06 0.609E+00 0.585E+03 0.447E-02 0.205E+06 0.178E-03
0.279E+01 0.500E-06 0.217E+01 -.423E-02 0.102E+06 0.609E+00 0.585E+03 0.447E-02 0.205E+06 0.178E-03
0.281E+01 0.500E-06 0.217E+01 -.431E-02 0.102E+06 0.609E+00 0.585E+03 0.447E-02 0.205E+06 0.178E-03
0.282E+01 0.500E-06 0.217E+01 -.429E-02 0.102E+06 0.609E+00 0.585E+03 0.447E-02 0.205E+06 0.178E-03
0.283E+01 0.500E-06 0.217E+01 -.407E-02 0.102E+06 0.609E+00 0.585E+03 0.447E-02 0.205E+06 0.178E-03
0.284E+01 0.500E-06 0.217E+01 -.373E-02 0.102E+06 0.609E+00 0.585E+03 0.447E-02 0.205E+06 0.178E-03
0.286E+01 0.500E-06 0.217E+01 -.343E-02 0.102E+06 0.609E+00 0.585E+03 0.447E-02 0.205E+06 0.178E-03
0.287E+01 0.500E-06 0.217E+01 -.319E-02 0.102E+06 0.609E+00 0.585E+03 0.447E-02 0.205E+06 0.178E-03
0.288E+01 0.500E-06 0.217E+01 -.303E-02 0.102E+06 0.609E+00 0.585E+03 0.447E-02 0.205E+06 0.178E-03
0.289E+01 0.500E-06 0.217E+01 -.300E-02 0.102E+06 0.609E+00 0.585E+03 0.447E-02 0.205E+06 0.178E-03
0.291E+01 0.500E-06 0.217E+01 -.315E-02 0.102E+06 0.609E+00 0.585E+03 0.447E-02 0.205E+06 0.178E-03
0.292E+01 0.500E-06 0.217E+01 -.346E-02 0.102E+06 0.609E+00 0.585E+03 0.447E-02 0.205E+06 0.178E-03
0.293E+01 0.500E-06 0.217E+01 -.393E-02 0.102E+06 0.609E+00 0.585E+03 0.447E-02 0.205E+06 0.178E-03
0.294E+01 0.500E-06 0.217E+01 -.451E-02 0.102E+06 0.609E+00 0.585E+03 0.447E-02 0.205E+06 0.178E-03
0.296E+01 0.500E-06 0.217E+01 -.511E-02 0.102E+06 0.609E+00 0.585E+03 0.447E-02 0.205E+06 0.178E-03
0.297E+01 0.500E-06 0.217E+01 -.566E-02 0.102E+06 0.609E+00 0.585E+03 0.447E-02 0.205E+06 0.178E-03
0.298E+01 0.500E-06 0.217E+01 -.610E-02 0.102E+06 0.609E+00 0.585E+03 0.447E-02 0.205E+06 0.178E-03
0.299E+01 0.500E-06 0.217E+01 -.632E-02 0.102E+06 0.609E+00 0.585E+03 0.447E-02 0.205E+06 0.178E-03
0.301E+01 0.500E-06 0.217E+01 -.631E-02 0.102E+06 0.609E+00 0.585E+03 0.447E-02 0.205E+06 0.178E-03
0.302E+01 0.500E-06 0.217E+01 -.609E-02 0.102E+06 0.609E+00 0.585E+03 0.447E-02 0.205E+06 0.178E-03
0.303E+01 0.500E-06 0.217E+01 -.569E-02 0.102E+06 0.609E+00 0.585E+03 0.447E-02 0.205E+06 0.178E-03
0.304E+01 0.500E-06 0.217E+01 -.520E-02 0.102E+06 0.609E+00 0.585E+03 0.447E-02 0.205E+06 0.178E-03
0.306E+01 0.500E-06 0.217E+01 -.478E-02 0.102E+06 0.609E+00 0.585E+03 0.447E-02 0.205E+06 0.178E-03
0.307E+01 0.500E-06 0.217E+01 -.442E-02 0.102E+06 0.609E+00 0.585E+03 0.447E-02 0.205E+06 0.178E-03
0.308E+01 0.500E-06 0.217E+01 -.409E-02 0.102E+06 0.609E+00 0.585E+03 0.447E-02 0.205E+06 0.178E-03
0.309E+01 0.500E-06 0.217E+01 -.380E-02 0.102E+06 0.609E+00 0.585E+03 0.447E-02 0.205E+06 0.178E-03
0.311E+01 0.500E-06 0.217E+01 -.355E-02 0.102E+06 0.609E+00 0.585E+03 0.447E-02 0.205E+06 0.178E-03
0.312E+01 0.500E-06 0.217E+01 -.334E-02 0.102E+06 0.609E+00 0.585E+03 0.447E-02 0.205E+06 0.178E-03
0.313E+01 0.500E-06 0.217E+01 -.322E-02 0.102E+06 0.609E+00 0.585E+03 0.447E-02 0.205E+06 0.178E-03
0.314E+01 0.500E-06 0.217E+01 -.314E-02 0.102E+06 0.609E+00 0.585E+03 0.447E-02 0.205E+06 0.178E-03
0.316E+01 0.500E-06 0.217E+01 -.314E-02 0.102E+06 0.609E+00 0.585E+03 0.447E-02 0.205E+06 0.178E-03
0.317E+01 0.500E-06 0.217E+01 -.317E-02 0.102E+06 0.609E+00 0.585E+03 0.447E-02 0.205E+06 0.178E-03
0.318E+01 0.500E-06 0.217E+01 -.319E-02 0.102E+06 0.609E+00 0.585E+03 0.447E-02 0.205E+06 0.178E-03
0.319E+01 0.500E-06 0.217E+01 -.320E-02 0.102E+06 0.609E+00 0.585E+03 0.447E-02 0.205E+06 0.178E-03
0.321E+01 0.500E-06 0.217E+01 -.321E-02 0.102E+06 0.609E+00 0.585E+03 0.447E-02 0.205E+06 0.178E-03
0.322E+01 0.500E-06 0.217E+01 -.322E-02 0.102E+06 0.609E+00 0.585E+03 0.447E-02 0.205E+06 0.178E-03
0.323E+01 0.500E-06 0.217E+01 -.322E-02 0.102E+06 0.609E+00 0.585E+03 0.447E-02 0.205E+06 0.178E-03
0.324E+01 0.500E-06 0.217E+01 -.322E-02 0.102E+06 0.609E+00 0.585E+03 0.447E-02 0.205E+06 0.178E-03
0.326E+01 0.500E-06 0.217E+01 -.322E-02 0.102E+06 0.609E+00 0.585E+03 0.447E-02 0.205E+06 0.178E-03
0.327E+01 0.500E-06 0.217E+01 -.325E-02 0.102E+06 0.609E+00 0.585E+03 0.447E-02 0.205E+06 0.178E-03
0.328E+01 0.500E-06 0.217E+01 -.327E-02 0.102E+06 0.609E+00 0.585E+03 0.447E-02 0.205E+06 0.178E-03
0.329E+01 0.500E-06 0.217E+01 -.328E-02 0.102E+06 0.609E+00 0.585E+03 0.447E-02 0.205E+06 0.178E-03
0.331E+01 0.500E-06 0.217E+01 -.326E-02 0.102E+06 0.609E+00 0.585E+03 0.447E-02 0.205E+06 0.178E-03
0.332E+01 0.500E-06 0.217E+01 -.324E-02 0.102E+06 0.609E+00 0.585E+03 0.447E-02 0.205E+06 0.178E-03
0.333E+01 0.500E-06 0.217E+01 -.324E-02 0.102E+06 0.609E+00 0.585E+03 0.447E-02 0.205E+06 0.178E-03
0.334E+01 0.500E-06 0.217E+01 -.326E-02 0.102E+06 0.609E+00 0.585E+03 0.447E-02 0.205E+06 0.178E-03
0.336E+01 0.500E-06 0.217E+01 -.327E-02 0.102E+06 0.609E+00 0.585E+03 0.447E-02 0.205E+06 0.178E-03
0.337E+01 0.500E-06 0.217E+01 -.328E-02 0.102E+06 0.609E+00 0.585E+03 0.447E-02 0.205E+06 0.178E-03
0.338E+01 0.500E-06 0.217E+01 -.328E-02 0.102E+06 0.609E+00 0.585E+03 0.447E-02 0.205E+06 0.178E-03
0.339E+01 0.500E-06 0.217E+01 -.329E-02 0.102E+06 0.609E+00 0.585E+03 0.447E-02 0.205E+06 0.178E-03
0.341E+01 0.500E-06 0.217E+01 -.329E-02 0.102E+06 0.609E+00 0.585E+03 0.447E-02 0.205E+06 0.178E-03
0.342E+01 0.500E-06 0.217E+01 -.329E-02 0.102E+06 0.609E+00 0.585E+03 0.447E-02 0.205E+06 0.178E-03
0.343E+01 0.500E-06 0.217E+01 -.329E-02 0.102E+06 0.609E+00 0.585E+03 0.447E-02 0.205E+06 0.178E-03
0.344E+01 0.500E-06 0.217E+01 -.329E-02 0.102E+06 0.609E+00 0.585E+03 0.447E-02 0.205E+06 0.178E-03
0.346E+01 0.500E-06 0.217E+01 -.328E-02 0.102E+06 0.609E+00 0.585E+03 0.447E-02 0.205E+06 0.178E-03
0.347E+01 0.500E-06 0.217E+01 -.327E-02 0.102E+06 0.609E+00 0.585E+03 0.447E-02 0.205E+06 0.178E-03
0.348E+01 0.500E-06 0.217E+01 -.325E-02 0.102E+06 0.609E+00 0.585E+03 0.447E-02 0.205E+06 0.178E-03
0.349E+01 0.500E-06 0.217E+01 -.321E-02 0.102E+06 0.609E+00 0.585E+03 0.447E-02 0.205E+06 0.178E-03
0.351E+01 0.500E-06 0.217E+01 -.317E-02 0.102E+06 0.609E+00 0.585E+03 0.447E-02 0.205E+06 0.178E-03
0.352E+01 0.500E-06 0.217E+01 -.315E-02 0.102E+06 0.609E+00 0.585E+03 0.447E-02 0.205E+06 0.178E-03
0.353E+01 0.500E-06 0.217E+01 -.316E-02 0.102E+06 0.609E+00 0.585E+03 0.447E-02 0.205E+06 0.178E-03
0.354E+01 0.500E-06 0.217E+01 -.317E-02 0.102E+06 0.609E+00 0.585E+03 0.447E-02 0.205E+06 0.178E-03
0.356E+01 0.500E-06 0.217E+01 -.319E-02 0.102E+06 0.609E+00 0.585E+03 0.447E-02 0.205E+06 0.178E-03
0.357E+01 0.500E-06 0.217E+01 -.320E-02 0.102E+06 0.609E+00 0.585E+03 0.447E-02 0.205E+06 0.178E-03
0.358E+01 0.500E-06 0.217E+01 -.321E-02 0.102E+06 0.609E+00 0.585E+03 0.447E-02 0.205E+06 0.178E-03
0.359E+01 0.500E-06 0.217E+01 -.321E-02 0.102E+06 0.609E+00 0.585E+03 0.447E-02 0.205E+06 0.178E-03
0.361E+01 0.500E-06 0.217E+01 -.321E-02 0.102E+06 0.609E+00 0.585E+03 0.447E-02 0.205E+06 0.178E-03
0.362E+01 0.500E-06 0.217E+01 -.321E-02 0.102E+06 0.609E+00 0.585E+03 0.447E-02 0.205E+06 0.178E-03
0.363E+01 0.500E-06 0.217E+01 -.322E-02 0.102E+06 0.609E+00 0.585E+03 0.447E-02 0.205E+06 0.178E-03
0.364E+01 0.500E-06 0.217E+01 -.324E-02 0.102E+06 0.609E+00 0.585E+03 0.447E-02 0.205E+06 0.178E-03
0.366E+01 0.500E-06 0.217E+01 -.327E-02 0.102E+06 0.609E+00 0.585E+03 0.447E-02 0.205E+06 0.178E-03
0.367E+01 0.500E-06 0.217E+01 -.328E-02 0.102E+06 0.609E+00 0.585E+03 0.447E-02 0.205E+06 0.178E-03
0.368E+01 0.500E-06 0.217E+01 -.329E-02 0.102E+06 0.609E+00 0.585E+03 0.447E-02 0.205E+06 0.178E-03
0.369E+01 0.500E-06 0.217E+01 -.328E-02 0.102E+06 0.609E+00 0.585E+03 0.447E-02 0.205E+06 0.178E-03
0.371E+01 0.500E-06 0.217E+01 -.328E-02 0.102E+06 0.609E+00 0.585E+03 0.447E-02 0.205E+06 0.178E-03
0.372E+01 0.500E-06 0.217E+01 -.327E-02 0.102E+06 0.609E+00 0.585E+03 0.447E-02 0.205E+06 0.178E-03