 title="contour"
 variables="x","y","u","v",
 "p","den","T","mach","entropy","mu"
 zone i=         400  j=         100  f=point
0.625E-02 0.500E-06 0.100E+04 0.453E-16 0.101E+06 0.118E+01 0.300E+03 0.288E+01 0.807E+05 0.111E-03
0.188E-01 0.500E-06 0.100E+04 0.159E-14 0.101E+06 0.118E+01 0.300E+03 0.288E+01 0.807E+05 0.111E-03
0.312E-01 0.500E-06 0.100E+04 0.243E-14 0.101E+06 0.118E+01 0.300E+03 0.288E+01 0.807E+05 0.111E-03
0.437E-01 0.500E-06 0.100E+04 0.222E-14 0.101E+06 0.118E+01 0.300E+03 0.288E+01 0.807E+05 0.111E-03
0.563E-01 0.500E-06 0.100E+04 0.286E-14 0.101E+06 0.118E+01 0.300E+03 0.288E+01 0.807E+05 0.111E-03
0.688E-01 0.500E-06 0.100E+04 0.286E-14 0.101E+06 0.118E+01 0.300E+03 0.288E+01 0.807E+05 0.111E-03
0.812E-01 0.500E-06 0.100E+04 0.286E-14 0.101E+06 0.118E+01 0.300E+03 0.288E+01 0.807E+05 0.111E-03
0.938E-01 0.500E-06 0.100E+04 0.493E-15 0.101E+06 0.118E+01 0.300E+03 0.288E+01 0.807E+05 0.111E-03
0.106E+00 0.500E-06 0.100E+04 0.286E-14 0.101E+06 0.118E+01 0.300E+03 0.288E+01 0.807E+05 0.111E-03
0.119E+00 0.500E-06 0.100E+04 0.286E-14 0.101E+06 0.118E+01 0.300E+03 0.288E+01 0.807E+05 0.111E-03
0.131E+00 0.500E-06 0.100E+04 0.493E-15 0.101E+06 0.118E+01 0.300E+03 0.288E+01 0.807E+05 0.111E-03
0.144E+00 0.500E-06 0.100E+04 -.285E-14 0.101E+06 0.118E+01 0.300E+03 0.288E+01 0.807E+05 0.111E-03
0.156E+00 0.500E-06 0.100E+04 0.494E-15 0.101E+06 0.118E+01 0.300E+03 0.288E+01 0.807E+05 0.111E-03
0.169E+00 0.500E-06 0.100E+04 -.285E-14 0.101E+06 0.118E+01 0.300E+03 0.288E+01 0.807E+05 0.111E-03
0.181E+00 0.500E-06 0.100E+04 0.494E-15 0.101E+06 0.118E+01 0.300E+03 0.288E+01 0.807E+05 0.111E-03
0.194E+00 0.500E-06 0.100E+04 0.494E-15 0.101E+06 0.118E+01 0.300E+03 0.288E+01 0.807E+05 0.111E-03
0.206E+00 0.500E-06 0.100E+04 -.285E-14 0.101E+06 0.118E+01 0.300E+03 0.288E+01 0.807E+05 0.111E-03
0.219E+00 0.500E-06 0.100E+04 0.494E-15 0.101E+06 0.118E+01 0.300E+03 0.288E+01 0.807E+05 0.111E-03
0.231E+00 0.500E-06 0.100E+04 -.285E-14 0.101E+06 0.118E+01 0.300E+03 0.288E+01 0.807E+05 0.111E-03
0.244E+00 0.500E-06 0.100E+04 0.494E-15 0.101E+06 0.118E+01 0.300E+03 0.288E+01 0.807E+05 0.111E-03
0.256E+00 0.500E-06 0.100E+04 0.494E-15 0.101E+06 0.118E+01 0.300E+03 0.288E+01 0.807E+05 0.111E-03
0.269E+00 0.500E-06 0.100E+04 0.494E-15 0.101E+06 0.118E+01 0.300E+03 0.288E+01 0.807E+05 0.111E-03
0.281E+00 0.500E-06 0.100E+04 0.494E-15 0.101E+06 0.118E+01 0.300E+03 0.288E+01 0.807E+05 0.111E-03
0.294E+00 0.500E-06 0.100E+04 0.494E-15 0.101E+06 0.118E+01 0.300E+03 0.288E+01 0.807E+05 0.111E-03
0.306E+00 0.500E-06 0.100E+04 0.494E-15 0.101E+06 0.118E+01 0.300E+03 0.288E+01 0.807E+05 0.111E-03
0.319E+00 0.500E-06 0.100E+04 0.494E-15 0.101E+06 0.118E+01 0.300E+03 0.288E+01 0.807E+05 0.111E-03
0.331E+00 0.500E-06 0.100E+04 0.494E-15 0.101E+06 0.118E+01 0.300E+03 0.288E+01 0.807E+05 0.111E-03
0.344E+00 0.500E-06 0.100E+04 0.494E-15 0.101E+06 0.118E+01 0.300E+03 0.288E+01 0.807E+05 0.111E-03
0.356E+00 0.500E-06 0.100E+04 0.494E-15 0.101E+06 0.118E+01 0.300E+03 0.288E+01 0.807E+05 0.111E-03
0.369E+00 0.500E-06 0.100E+04 0.494E-15 0.101E+06 0.118E+01 0.300E+03 0.288E+01 0.807E+05 0.111E-03
0.381E+00 0.500E-06 0.100E+04 0.494E-15 0.101E+06 0.118E+01 0.300E+03 0.288E+01 0.807E+05 0.111E-03
0.394E+00 0.500E-06 0.100E+04 0.494E-15 0.101E+06 0.118E+01 0.300E+03 0.288E+01 0.807E+05 0.111E-03
0.406E+00 0.500E-06 0.100E+04 0.494E-15 0.101E+06 0.118E+01 0.300E+03 0.288E+01 0.807E+05 0.111E-03
0.419E+00 0.500E-06 0.100E+04 0.494E-15 0.101E+06 0.118E+01 0.300E+03 0.288E+01 0.807E+05 0.111E-03
0.431E+00 0.500E-06 0.100E+04 0.494E-15 0.101E+06 0.118E+01 0.300E+03 0.288E+01 0.807E+05 0.111E-03
0.444E+00 0.500E-06 0.100E+04 0.494E-15 0.101E+06 0.118E+01 0.300E+03 0.288E+01 0.807E+05 0.111E-03
0.456E+00 0.500E-06 0.100E+04 0.494E-15 0.101E+06 0.118E+01 0.300E+03 0.288E+01 0.807E+05 0.111E-03
0.469E+00 0.500E-06 0.100E+04 0.494E-15 0.101E+06 0.118E+01 0.300E+03 0.288E+01 0.807E+05 0.111E-03
0.481E+00 0.500E-06 0.100E+04 0.494E-15 0.101E+06 0.118E+01 0.300E+03 0.288E+01 0.807E+05 0.111E-03
0.494E+00 0.500E-06 0.100E+04 0.494E-15 0.101E+06 0.118E+01 0.300E+03 0.288E+01 0.807E+05 0.111E-03
0.506E+00 0.500E-06 0.100E+04 0.494E-15 0.101E+06 0.118E+01 0.300E+03 0.288E+01 0.807E+05 0.111E-03
0.519E+00 0.500E-06 0.100E+04 -.285E-14 0.101E+06 0.118E+01 0.300E+03 0.288E+01 0.807E+05 0.111E-03
0.531E+00 0.500E-06 0.100E+04 0.494E-15 0.101E+06 0.118E+01 0.300E+03 0.288E+01 0.807E+05 0.111E-03
0.544E+00 0.500E-06 0.100E+04 -.285E-14 0.101E+06 0.118E+01 0.300E+03 0.288E+01 0.807E+05 0.111E-03
0.556E+00 0.500E-06 0.100E+04 0.494E-15 0.101E+06 0.118E+01 0.300E+03 0.288E+01 0.807E+05 0.111E-03
0.569E+00 0.500E-06 0.100E+04 0.494E-15 0.101E+06 0.118E+01 0.300E+03 0.288E+01 0.807E+05 0.111E-03
0.581E+00 0.500E-06 0.100E+04 -.285E-14 0.101E+06 0.118E+01 0.300E+03 0.288E+01 0.807E+05 0.111E-03
0.594E+00 0.500E-06 0.100E+04 0.494E-15 0.101E+06 0.118E+01 0.300E+03 0.288E+01 0.807E+05 0.111E-03
0.606E+00 0.500E-06 0.100E+04 -.285E-14 0.101E+06 0.118E+01 0.300E+03 0.288E+01 0.807E+05 0.111E-03
0.619E+00 0.500E-06 0.100E+04 0.494E-15 0.101E+06 0.118E+01 0.300E+03 0.288E+01 0.807E+05 0.111E-03
0.631E+00 0.500E-06 0.100E+04 0.494E-15 0.101E+06 0.118E+01 0.300E+03 0.288E+01 0.807E+05 0.111E-03
0.644E+00 0.500E-06 0.100E+04 -.285E-14 0.101E+06 0.118E+01 0.300E+03 0.288E+01 0.807E+05 0.111E-03
0.656E+00 0.500E-06 0.100E+04 0.494E-15 0.101E+06 0.118E+01 0.300E+03 0.288E+01 0.807E+05 0.111E-03
0.669E+00 0.500E-06 0.100E+04 -.285E-14 0.101E+06 0.118E+01 0.300E+03 0.288E+01 0.807E+05 0.111E-03
0.681E+00 0.500E-06 0.100E+04 0.494E-15 0.101E+06 0.118E+01 0.300E+03 0.288E+01 0.807E+05 0.111E-03
0.694E+00 0.500E-06 0.100E+04 0.494E-15 0.101E+06 0.118E+01 0.300E+03 0.288E+01 0.807E+05 0.111E-03
0.706E+00 0.500E-06 0.100E+04 -.285E-14 0.101E+06 0.118E+01 0.300E+03 0.288E+01 0.807E+05 0.111E-03
0.719E+00 0.500E-06 0.100E+04 0.494E-15 0.101E+06 0.118E+01 0.300E+03 0.288E+01 0.807E+05 0.111E-03
0.731E+00 0.500E-06 0.100E+04 -.285E-14 0.101E+06 0.118E+01 0.300E+03 0.288E+01 0.807E+05 0.111E-03
0.744E+00 0.500E-06 0.100E+04 0.494E-15 0.101E+06 0.118E+01 0.300E+03 0.288E+01 0.807E+05 0.111E-03
0.756E+00 0.500E-06 0.100E+04 0.494E-15 0.101E+06 0.118E+01 0.300E+03 0.288E+01 0.807E+05 0.111E-03
0.769E+00 0.500E-06 0.100E+04 -.285E-14 0.101E+06 0.118E+01 0.300E+03 0.288E+01 0.807E+05 0.111E-03
0.781E+00 0.500E-06 0.100E+04 0.494E-15 0.101E+06 0.118E+01 0.300E+03 0.288E+01 0.807E+05 0.111E-03
0.794E+00 0.500E-06 0.100E+04 -.285E-14 0.101E+06 0.118E+01 0.300E+03 0.288E+01 0.807E+05 0.111E-03
0.806E+00 0.500E-06 0.100E+04 0.494E-15 0.101E+06 0.118E+01 0.300E+03 0.288E+01 0.807E+05 0.111E-03
0.819E+00 0.500E-06 0.100E+04 0.494E-15 0.101E+06 0.118E+01 0.300E+03 0.288E+01 0.807E+05 0.111E-03
0.831E+00 0.500E-06 0.100E+04 -.285E-14 0.101E+06 0.118E+01 0.300E+03 0.288E+01 0.807E+05 0.111E-03
0.844E+00 0.500E-06 0.100E+04 0.494E-15 0.101E+06 0.118E+01 0.300E+03 0.288E+01 0.807E+05 0.111E-03
0.856E+00 0.500E-06 0.100E+04 -.285E-14 0.101E+06 0.118E+01 0.300E+03 0.288E+01 0.807E+05 0.111E-03
0.869E+00 0.500E-06 0.100E+04 0.494E-15 0.101E+06 0.118E+01 0.300E+03 0.288E+01 0.807E+05 0.111E-03
0.881E+00 0.500E-06 0.100E+04 0.494E-15 0.101E+06 0.118E+01 0.300E+03 0.288E+01 0.807E+05 0.111E-03
0.894E+00 0.500E-06 0.100E+04 -.285E-14 0.101E+06 0.118E+01 0.300E+03 0.288E+01 0.807E+05 0.111E-03
0.906E+00 0.500E-06 0.100E+04 0.494E-15 0.101E+06 0.118E+01 0.300E+03 0.288E+01 0.807E+05 0.111E-03
0.919E+00 0.500E-06 0.100E+04 -.285E-14 0.101E+06 0.118E+01 0.300E+03 0.288E+01 0.807E+05 0.111E-03
0.931E+00 0.500E-06 0.100E+04 0.494E-15 0.101E+06 0.118E+01 0.300E+03 0.288E+01 0.807E+05 0.111E-03
0.944E+00 0.500E-06 0.100E+04 0.494E-15 0.101E+06 0.118E+01 0.300E+03 0.288E+01 0.807E+05 0.111E-03
0.956E+00 0.500E-06 0.100E+04 -.292E-14 0.101E+06 0.118E+01 0.300E+03 0.288E+01 0.807E+05 0.111E-03
0.969E+00 0.500E-06 0.100E+04 -.538E-12 0.101E+06 0.118E+01 0.300E+03 0.288E+01 0.807E+05 0.111E-03
0.981E+00 0.500E-06 0.100E+04 -.106E-06 0.101E+06 0.118E+01 0.300E+03 0.288E+01 0.807E+05 0.111E-03
0.994E+00 0.500E-06 0.100E+04 -.573E-01 0.101E+06 0.118E+01 0.300E+03 0.288E+01 0.807E+05 0.111E-03
0.101E+01 0.500E-06 0.766E+01 0.121E+00 0.109E+06 0.400E+00 0.954E+03 0.124E-01 0.395E+06 0.242E-03
0.102E+01 0.500E-06 0.303E+01 -.847E-02 0.103E+06 0.395E+00 0.909E+03 0.502E-02 0.378E+06 0.235E-03
0.103E+01 0.500E-06 0.290E+01 -.909E-02 0.102E+06 0.394E+00 0.904E+03 0.481E-02 0.376E+06 0.234E-03
0.104E+01 0.500E-06 0.289E+01 -.943E-02 0.102E+06 0.394E+00 0.903E+03 0.480E-02 0.376E+06 0.234E-03
0.106E+01 0.500E-06 0.289E+01 -.599E-02 0.102E+06 0.394E+00 0.903E+03 0.480E-02 0.376E+06 0.234E-03
0.107E+01 0.500E-06 0.289E+01 -.531E-02 0.102E+06 0.394E+00 0.903E+03 0.480E-02 0.376E+06 0.234E-03
0.108E+01 0.500E-06 0.290E+01 -.965E-02 0.102E+06 0.394E+00 0.903E+03 0.481E-02 0.376E+06 0.234E-03
0.109E+01 0.500E-06 0.290E+01 -.691E-02 0.102E+06 0.394E+00 0.903E+03 0.481E-02 0.376E+06 0.234E-03
0.111E+01 0.500E-06 0.290E+01 -.587E-02 0.102E+06 0.394E+00 0.903E+03 0.481E-02 0.376E+06 0.234E-03
0.112E+01 0.500E-06 0.290E+01 -.554E-02 0.102E+06 0.394E+00 0.903E+03 0.481E-02 0.376E+06 0.234E-03
0.113E+01 0.500E-06 0.290E+01 -.450E-02 0.102E+06 0.394E+00 0.904E+03 0.481E-02 0.376E+06 0.234E-03
0.114E+01 0.500E-06 0.290E+01 -.338E-02 0.102E+06 0.394E+00 0.904E+03 0.481E-02 0.376E+06 0.234E-03
0.116E+01 0.500E-06 0.290E+01 -.437E-02 0.102E+06 0.394E+00 0.904E+03 0.481E-02 0.376E+06 0.234E-03
0.117E+01 0.500E-06 0.290E+01 -.683E-02 0.102E+06 0.394E+00 0.904E+03 0.481E-02 0.376E+06 0.234E-03
0.118E+01 0.500E-06 0.290E+01 -.947E-02 0.102E+06 0.394E+00 0.904E+03 0.481E-02 0.376E+06 0.234E-03
0.119E+01 0.500E-06 0.290E+01 -.101E-01 0.102E+06 0.394E+00 0.904E+03 0.481E-02 0.376E+06 0.234E-03
0.121E+01 0.500E-06 0.290E+01 -.912E-02 0.102E+06 0.394E+00 0.904E+03 0.481E-02 0.376E+06 0.234E-03
0.122E+01 0.500E-06 0.290E+01 -.804E-02 0.102E+06 0.394E+00 0.904E+03 0.481E-02 0.376E+06 0.234E-03
0.123E+01 0.500E-06 0.290E+01 -.783E-02 0.102E+06 0.394E+00 0.904E+03 0.481E-02 0.376E+06 0.234E-03
0.124E+01 0.500E-06 0.290E+01 -.829E-02 0.102E+06 0.394E+00 0.904E+03 0.481E-02 0.376E+06 0.234E-03
0.126E+01 0.500E-06 0.290E+01 -.845E-02 0.102E+06 0.394E+00 0.904E+03 0.481E-02 0.376E+06 0.234E-03
0.127E+01 0.500E-06 0.290E+01 -.807E-02 0.102E+06 0.394E+00 0.904E+03 0.481E-02 0.376E+06 0.234E-03
0.128E+01 0.500E-06 0.290E+01 -.676E-02 0.102E+06 0.394E+00 0.904E+03 0.481E-02 0.376E+06 0.234E-03
0.129E+01 0.500E-06 0.290E+01 -.571E-02 0.102E+06 0.394E+00 0.904E+03 0.481E-02 0.376E+06 0.234E-03
0.131E+01 0.500E-06 0.290E+01 -.522E-02 0.102E+06 0.394E+00 0.904E+03 0.481E-02 0.376E+06 0.234E-03
0.132E+01 0.500E-06 0.290E+01 -.515E-02 0.102E+06 0.394E+00 0.904E+03 0.481E-02 0.376E+06 0.234E-03
0.133E+01 0.500E-06 0.290E+01 -.560E-02 0.102E+06 0.394E+00 0.904E+03 0.481E-02 0.376E+06 0.234E-03
0.134E+01 0.500E-06 0.290E+01 -.623E-02 0.102E+06 0.394E+00 0.904E+03 0.481E-02 0.376E+06 0.234E-03
0.136E+01 0.500E-06 0.290E+01 -.686E-02 0.102E+06 0.394E+00 0.904E+03 0.481E-02 0.376E+06 0.234E-03
0.137E+01 0.500E-06 0.290E+01 -.749E-02 0.102E+06 0.394E+00 0.904E+03 0.481E-02 0.376E+06 0.234E-03
0.138E+01 0.500E-06 0.290E+01 -.755E-02 0.102E+06 0.394E+00 0.904E+03 0.481E-02 0.376E+06 0.234E-03
0.139E+01 0.500E-06 0.290E+01 -.720E-02 0.102E+06 0.394E+00 0.904E+03 0.481E-02 0.376E+06 0.234E-03
0.141E+01 0.500E-06 0.290E+01 -.674E-02 0.102E+06 0.394E+00 0.904E+03 0.481E-02 0.376E+06 0.234E-03
0.142E+01 0.500E-06 0.290E+01 -.626E-02 0.102E+06 0.394E+00 0.904E+03 0.481E-02 0.376E+06 0.234E-03
0.143E+01 0.500E-06 0.290E+01 -.588E-02 0.102E+06 0.394E+00 0.904E+03 0.481E-02 0.376E+06 0.234E-03
0.144E+01 0.500E-06 0.290E+01 -.562E-02 0.102E+06 0.394E+00 0.904E+03 0.481E-02 0.376E+06 0.234E-03
0.146E+01 0.500E-06 0.290E+01 -.549E-02 0.102E+06 0.394E+00 0.904E+03 0.481E-02 0.376E+06 0.234E-03
0.147E+01 0.500E-06 0.290E+01 -.552E-02 0.102E+06 0.394E+00 0.904E+03 0.481E-02 0.376E+06 0.234E-03
0.148E+01 0.500E-06 0.290E+01 -.556E-02 0.102E+06 0.394E+00 0.904E+03 0.481E-02 0.376E+06 0.234E-03
0.149E+01 0.500E-06 0.290E+01 -.567E-02 0.102E+06 0.394E+00 0.904E+03 0.481E-02 0.376E+06 0.234E-03
0.151E+01 0.500E-06 0.290E+01 -.584E-02 0.102E+06 0.394E+00 0.904E+03 0.481E-02 0.376E+06 0.234E-03
0.152E+01 0.500E-06 0.290E+01 -.596E-02 0.102E+06 0.394E+00 0.904E+03 0.481E-02 0.376E+06 0.234E-03
0.153E+01 0.500E-06 0.290E+01 -.613E-02 0.102E+06 0.394E+00 0.904E+03 0.481E-02 0.376E+06 0.234E-03
0.154E+01 0.500E-06 0.290E+01 -.630E-02 0.102E+06 0.394E+00 0.904E+03 0.481E-02 0.376E+06 0.234E-03
0.156E+01 0.500E-06 0.290E+01 -.640E-02 0.102E+06 0.394E+00 0.904E+03 0.481E-02 0.376E+06 0.234E-03
0.157E+01 0.500E-06 0.290E+01 -.666E-02 0.102E+06 0.394E+00 0.904E+03 0.481E-02 0.376E+06 0.234E-03
0.158E+01 0.500E-06 0.290E+01 -.679E-02 0.102E+06 0.394E+00 0.904E+03 0.481E-02 0.376E+06 0.234E-03
0.159E+01 0.500E-06 0.290E+01 -.696E-02 0.102E+06 0.394E+00 0.904E+03 0.481E-02 0.376E+06 0.234E-03
0.161E+01 0.500E-06 0.290E+01 -.706E-02 0.102E+06 0.394E+00 0.904E+03 0.481E-02 0.376E+06 0.234E-03
0.162E+01 0.500E-06 0.290E+01 -.714E-02 0.102E+06 0.394E+00 0.904E+03 0.482E-02 0.376E+06 0.234E-03
0.163E+01 0.500E-06 0.290E+01 -.722E-02 0.102E+06 0.394E+00 0.904E+03 0.482E-02 0.376E+06 0.234E-03
0.164E+01 0.500E-06 0.290E+01 -.712E-02 0.102E+06 0.394E+00 0.904E+03 0.482E-02 0.376E+06 0.234E-03
0.166E+01 0.500E-06 0.290E+01 -.708E-02 0.102E+06 0.394E+00 0.904E+03 0.482E-02 0.376E+06 0.234E-03
0.167E+01 0.500E-06 0.290E+01 -.698E-02 0.102E+06 0.394E+00 0.904E+03 0.482E-02 0.376E+06 0.234E-03
0.168E+01 0.500E-06 0.290E+01 -.689E-02 0.102E+06 0.394E+00 0.904E+03 0.482E-02 0.376E+06 0.234E-03
0.169E+01 0.500E-06 0.290E+01 -.681E-02 0.102E+06 0.394E+00 0.904E+03 0.482E-02 0.376E+06 0.234E-03
0.171E+01 0.500E-06 0.290E+01 -.672E-02 0.102E+06 0.394E+00 0.904E+03 0.482E-02 0.376E+06 0.234E-03
0.172E+01 0.500E-06 0.290E+01 -.662E-02 0.102E+06 0.394E+00 0.904E+03 0.482E-02 0.376E+06 0.234E-03
0.173E+01 0.500E-06 0.290E+01 -.672E-02 0.102E+06 0.394E+00 0.904E+03 0.482E-02 0.376E+06 0.234E-03
0.174E+01 0.500E-06 0.290E+01 -.678E-02 0.102E+06 0.394E+00 0.904E+03 0.482E-02 0.376E+06 0.234E-03
0.176E+01 0.500E-06 0.290E+01 -.686E-02 0.102E+06 0.394E+00 0.904E+03 0.482E-02 0.376E+06 0.234E-03
0.177E+01 0.500E-06 0.290E+01 -.685E-02 0.102E+06 0.394E+00 0.904E+03 0.482E-02 0.376E+06 0.234E-03
0.178E+01 0.500E-06 0.290E+01 -.684E-02 0.102E+06 0.394E+00 0.904E+03 0.482E-02 0.376E+06 0.234E-03
0.179E+01 0.500E-06 0.290E+01 -.689E-02 0.102E+06 0.394E+00 0.904E+03 0.482E-02 0.376E+06 0.234E-03
0.181E+01 0.500E-06 0.290E+01 -.696E-02 0.102E+06 0.394E+00 0.904E+03 0.482E-02 0.376E+06 0.234E-03
0.182E+01 0.500E-06 0.290E+01 -.682E-02 0.102E+06 0.394E+00 0.904E+03 0.482E-02 0.376E+06 0.234E-03
0.183E+01 0.500E-06 0.290E+01 -.667E-02 0.102E+06 0.394E+00 0.904E+03 0.482E-02 0.376E+06 0.234E-03
0.184E+01 0.500E-06 0.290E+01 -.652E-02 0.102E+06 0.394E+00 0.904E+03 0.482E-02 0.376E+06 0.234E-03
0.186E+01 0.500E-06 0.290E+01 -.625E-02 0.102E+06 0.394E+00 0.904E+03 0.482E-02 0.376E+06 0.234E-03
0.187E+01 0.500E-06 0.290E+01 -.593E-02 0.102E+06 0.394E+00 0.904E+03 0.482E-02 0.376E+06 0.234E-03
0.188E+01 0.500E-06 0.290E+01 -.569E-02 0.102E+06 0.394E+00 0.904E+03 0.482E-02 0.376E+06 0.234E-03
0.189E+01 0.500E-06 0.290E+01 -.557E-02 0.102E+06 0.394E+00 0.904E+03 0.482E-02 0.376E+06 0.234E-03
0.191E+01 0.500E-06 0.290E+01 -.553E-02 0.102E+06 0.394E+00 0.904E+03 0.482E-02 0.376E+06 0.234E-03
0.192E+01 0.500E-06 0.290E+01 -.561E-02 0.102E+06 0.394E+00 0.904E+03 0.482E-02 0.376E+06 0.234E-03
0.193E+01 0.500E-06 0.290E+01 -.557E-02 0.102E+06 0.394E+00 0.904E+03 0.482E-02 0.376E+06 0.234E-03
0.194E+01 0.500E-06 0.290E+01 -.575E-02 0.102E+06 0.394E+00 0.904E+03 0.482E-02 0.376E+06 0.234E-03
0.196E+01 0.500E-06 0.290E+01 -.590E-02 0.102E+06 0.394E+00 0.904E+03 0.482E-02 0.376E+06 0.234E-03
0.197E+01 0.500E-06 0.290E+01 -.604E-02 0.102E+06 0.394E+00 0.904E+03 0.482E-02 0.376E+06 0.234E-03
0.198E+01 0.500E-06 0.290E+01 -.622E-02 0.102E+06 0.394E+00 0.904E+03 0.482E-02 0.376E+06 0.234E-03
0.199E+01 0.500E-06 0.290E+01 -.645E-02 0.102E+06 0.394E+00 0.904E+03 0.482E-02 0.376E+06 0.234E-03
0.201E+01 0.500E-06 0.290E+01 -.670E-02 0.102E+06 0.394E+00 0.904E+03 0.482E-02 0.376E+06 0.234E-03
0.202E+01 0.500E-06 0.290E+01 -.674E-02 0.102E+06 0.394E+00 0.904E+03 0.482E-02 0.376E+06 0.234E-03
0.203E+01 0.500E-06 0.290E+01 -.686E-02 0.102E+06 0.394E+00 0.904E+03 0.482E-02 0.376E+06 0.234E-03
0.204E+01 0.500E-06 0.290E+01 -.671E-02 0.102E+06 0.394E+00 0.904E+03 0.482E-02 0.376E+06 0.234E-03
0.206E+01 0.500E-06 0.290E+01 -.656E-02 0.102E+06 0.394E+00 0.904E+03 0.482E-02 0.376E+06 0.234E-03
0.207E+01 0.500E-06 0.290E+01 -.641E-02 0.102E+06 0.394E+00 0.904E+03 0.482E-02 0.376E+06 0.234E-03
0.208E+01 0.500E-06 0.290E+01 -.618E-02 0.102E+06 0.394E+00 0.904E+03 0.482E-02 0.376E+06 0.234E-03
0.209E+01 0.500E-06 0.290E+01 -.587E-02 0.102E+06 0.394E+00 0.904E+03 0.482E-02 0.376E+06 0.234E-03
0.211E+01 0.500E-06 0.290E+01 -.547E-02 0.102E+06 0.394E+00 0.904E+03 0.482E-02 0.376E+06 0.234E-03
0.212E+01 0.500E-06 0.291E+01 -.506E-02 0.102E+06 0.394E+00 0.904E+03 0.482E-02 0.376E+06 0.234E-03
0.213E+01 0.500E-06 0.291E+01 -.476E-02 0.102E+06 0.394E+00 0.904E+03 0.482E-02 0.376E+06 0.234E-03
0.214E+01 0.500E-06 0.291E+01 -.468E-02 0.102E+06 0.394E+00 0.904E+03 0.482E-02 0.376E+06 0.234E-03
0.216E+01 0.500E-06 0.291E+01 -.487E-02 0.102E+06 0.394E+00 0.904E+03 0.482E-02 0.376E+06 0.234E-03
0.217E+01 0.500E-06 0.291E+01 -.511E-02 0.102E+06 0.394E+00 0.904E+03 0.482E-02 0.376E+06 0.234E-03
0.218E+01 0.500E-06 0.291E+01 -.554E-02 0.102E+06 0.394E+00 0.904E+03 0.482E-02 0.376E+06 0.234E-03
0.219E+01 0.500E-06 0.291E+01 -.627E-02 0.102E+06 0.394E+00 0.904E+03 0.482E-02 0.376E+06 0.234E-03
0.221E+01 0.500E-06 0.291E+01 -.691E-02 0.102E+06 0.394E+00 0.904E+03 0.482E-02 0.376E+06 0.234E-03
0.222E+01 0.500E-06 0.291E+01 -.741E-02 0.102E+06 0.394E+00 0.904E+03 0.482E-02 0.376E+06 0.234E-03
0.223E+01 0.500E-06 0.291E+01 -.801E-02 0.102E+06 0.394E+00 0.904E+03 0.482E-02 0.376E+06 0.234E-03
0.224E+01 0.500E-06 0.291E+01 -.873E-02 0.102E+06 0.394E+00 0.904E+03 0.482E-02 0.376E+06 0.234E-03
0.226E+01 0.500E-06 0.291E+01 -.935E-02 0.102E+06 0.394E+00 0.904E+03 0.482E-02 0.376E+06 0.234E-03
0.227E+01 0.500E-06 0.291E+01 -.955E-02 0.102E+06 0.394E+00 0.904E+03 0.482E-02 0.376E+06 0.234E-03
0.228E+01 0.500E-06 0.291E+01 -.903E-02 0.102E+06 0.394E+00 0.904E+03 0.482E-02 0.376E+06 0.234E-03
0.229E+01 0.500E-06 0.291E+01 -.790E-02 0.102E+06 0.394E+00 0.904E+03 0.482E-02 0.376E+06 0.234E-03
0.231E+01 0.500E-06 0.291E+01 -.676E-02 0.102E+06 0.394E+00 0.904E+03 0.482E-02 0.376E+06 0.234E-03
0.232E+01 0.500E-06 0.291E+01 -.596E-02 0.102E+06 0.394E+00 0.904E+03 0.482E-02 0.376E+06 0.234E-03
0.233E+01 0.500E-06 0.291E+01 -.514E-02 0.102E+06 0.394E+00 0.904E+03 0.482E-02 0.376E+06 0.234E-03
0.234E+01 0.500E-06 0.291E+01 -.417E-02 0.102E+06 0.394E+00 0.904E+03 0.482E-02 0.376E+06 0.234E-03
0.236E+01 0.500E-06 0.291E+01 -.293E-02 0.102E+06 0.394E+00 0.904E+03 0.482E-02 0.376E+06 0.234E-03
0.237E+01 0.500E-06 0.291E+01 -.145E-02 0.102E+06 0.394E+00 0.904E+03 0.482E-02 0.376E+06 0.234E-03
0.238E+01 0.500E-06 0.291E+01 0.294E-04 0.102E+06 0.394E+00 0.904E+03 0.482E-02 0.376E+06 0.234E-03
0.239E+01 0.500E-06 0.291E+01 0.126E-02 0.102E+06 0.394E+00 0.904E+03 0.482E-02 0.376E+06 0.234E-03
0.241E+01 0.500E-06 0.291E+01 0.135E-02 0.102E+06 0.394E+00 0.904E+03 0.483E-02 0.376E+06 0.234E-03
0.242E+01 0.500E-06 0.291E+01 0.988E-04 0.102E+06 0.394E+00 0.904E+03 0.483E-02 0.376E+06 0.234E-03
0.243E+01 0.500E-06 0.291E+01 -.234E-02 0.102E+06 0.394E+00 0.904E+03 0.483E-02 0.376E+06 0.234E-03
0.244E+01 0.500E-06 0.291E+01 -.503E-02 0.102E+06 0.394E+00 0.904E+03 0.483E-02 0.376E+06 0.234E-03
0.246E+01 0.500E-06 0.291E+01 -.722E-02 0.102E+06 0.394E+00 0.904E+03 0.483E-02 0.376E+06 0.234E-03
0.247E+01 0.500E-06 0.291E+01 -.896E-02 0.102E+06 0.394E+00 0.904E+03 0.483E-02 0.376E+06 0.234E-03
0.248E+01 0.500E-06 0.291E+01 -.106E-01 0.102E+06 0.394E+00 0.904E+03 0.483E-02 0.376E+06 0.234E-03
0.249E+01 0.500E-06 0.291E+01 -.123E-01 0.102E+06 0.394E+00 0.904E+03 0.483E-02 0.376E+06 0.234E-03
0.251E+01 0.500E-06 0.291E+01 -.142E-01 0.102E+06 0.394E+00 0.904E+03 0.483E-02 0.376E+06 0.234E-03
0.252E+01 0.500E-06 0.291E+01 -.161E-01 0.102E+06 0.394E+00 0.904E+03 0.483E-02 0.376E+06 0.234E-03
0.253E+01 0.500E-06 0.291E+01 -.176E-01 0.102E+06 0.394E+00 0.904E+03 0.483E-02 0.376E+06 0.234E-03
0.254E+01 0.500E-06 0.291E+01 -.180E-01 0.102E+06 0.394E+00 0.904E+03 0.483E-02 0.376E+06 0.234E-03
0.256E+01 0.500E-06 0.291E+01 -.168E-01 0.102E+06 0.394E+00 0.904E+03 0.483E-02 0.376E+06 0.234E-03
0.257E+01 0.500E-06 0.291E+01 -.143E-01 0.102E+06 0.394E+00 0.904E+03 0.483E-02 0.376E+06 0.234E-03
0.258E+01 0.500E-06 0.291E+01 -.111E-01 0.102E+06 0.394E+00 0.904E+03 0.483E-02 0.376E+06 0.234E-03
0.259E+01 0.500E-06 0.291E+01 -.773E-02 0.102E+06 0.394E+00 0.904E+03 0.483E-02 0.376E+06 0.234E-03
0.261E+01 0.500E-06 0.291E+01 -.482E-02 0.102E+06 0.394E+00 0.904E+03 0.483E-02 0.376E+06 0.234E-03
0.262E+01 0.500E-06 0.291E+01 -.259E-02 0.102E+06 0.394E+00 0.904E+03 0.483E-02 0.376E+06 0.234E-03
0.263E+01 0.500E-06 0.291E+01 -.117E-02 0.102E+06 0.394E+00 0.904E+03 0.483E-02 0.376E+06 0.234E-03
0.264E+01 0.500E-06 0.291E+01 -.404E-03 0.102E+06 0.394E+00 0.904E+03 0.483E-02 0.376E+06 0.234E-03
0.266E+01 0.500E-06 0.291E+01 0.160E-03 0.102E+06 0.394E+00 0.904E+03 0.483E-02 0.376E+06 0.234E-03
0.267E+01 0.500E-06 0.291E+01 0.879E-03 0.102E+06 0.394E+00 0.904E+03 0.483E-02 0.376E+06 0.234E-03
0.268E+01 0.500E-06 0.291E+01 0.183E-02 0.102E+06 0.394E+00 0.904E+03 0.483E-02 0.376E+06 0.234E-03
0.269E+01 0.500E-06 0.291E+01 0.255E-02 0.102E+06 0.394E+00 0.904E+03 0.483E-02 0.376E+06 0.234E-03
0.271E+01 0.500E-06 0.291E+01 0.253E-02 0.102E+06 0.394E+00 0.904E+03 0.483E-02 0.376E+06 0.234E-03
0.272E+01 0.500E-06 0.291E+01 0.180E-02 0.102E+06 0.394E+00 0.904E+03 0.483E-02 0.376E+06 0.234E-03
0.273E+01 0.500E-06 0.291E+01 0.749E-03 0.102E+06 0.394E+00 0.904E+03 0.483E-02 0.376E+06 0.234E-03
0.274E+01 0.500E-06 0.291E+01 -.644E-03 0.102E+06 0.394E+00 0.904E+03 0.483E-02 0.376E+06 0.234E-03
0.276E+01 0.500E-06 0.291E+01 -.207E-02 0.102E+06 0.394E+00 0.904E+03 0.483E-02 0.376E+06 0.234E-03
0.277E+01 0.500E-06 0.291E+01 -.333E-02 0.102E+06 0.394E+00 0.904E+03 0.483E-02 0.376E+06 0.234E-03
0.278E+01 0.500E-06 0.291E+01 -.440E-02 0.102E+06 0.394E+00 0.904E+03 0.483E-02 0.376E+06 0.234E-03
0.279E+01 0.500E-06 0.291E+01 -.539E-02 0.102E+06 0.394E+00 0.904E+03 0.483E-02 0.376E+06 0.234E-03
0.281E+01 0.500E-06 0.291E+01 -.642E-02 0.102E+06 0.394E+00 0.904E+03 0.483E-02 0.376E+06 0.234E-03
0.282E+01 0.500E-06 0.291E+01 -.738E-02 0.102E+06 0.394E+00 0.904E+03 0.483E-02 0.376E+06 0.234E-03
0.283E+01 0.500E-06 0.291E+01 -.818E-02 0.102E+06 0.394E+00 0.904E+03 0.483E-02 0.376E+06 0.234E-03
0.284E+01 0.500E-06 0.291E+01 -.879E-02 0.102E+06 0.394E+00 0.904E+03 0.483E-02 0.376E+06 0.234E-03
0.286E+01 0.500E-06 0.291E+01 -.936E-02 0.102E+06 0.394E+00 0.904E+03 0.483E-02 0.376E+06 0.234E-03
0.287E+01 0.500E-06 0.291E+01 -.101E-01 0.102E+06 0.394E+00 0.904E+03 0.483E-02 0.376E+06 0.234E-03
0.288E+01 0.500E-06 0.291E+01 -.110E-01 0.102E+06 0.394E+00 0.904E+03 0.484E-02 0.376E+06 0.234E-03
0.289E+01 0.500E-06 0.291E+01 -.122E-01 0.102E+06 0.394E+00 0.904E+03 0.484E-02 0.376E+06 0.234E-03
0.291E+01 0.500E-06 0.291E+01 -.136E-01 0.102E+06 0.394E+00 0.904E+03 0.484E-02 0.376E+06 0.234E-03
0.292E+01 0.500E-06 0.291E+01 -.147E-01 0.102E+06 0.394E+00 0.904E+03 0.484E-02 0.376E+06 0.234E-03
0.293E+01 0.500E-06 0.291E+01 -.154E-01 0.102E+06 0.394E+00 0.904E+03 0.484E-02 0.376E+06 0.234E-03
0.294E+01 0.500E-06 0.291E+01 -.157E-01 0.102E+06 0.394E+00 0.904E+03 0.483E-02 0.376E+06 0.234E-03
0.296E+01 0.500E-06 0.291E+01 -.158E-01 0.102E+06 0.394E+00 0.904E+03 0.483E-02 0.376E+06 0.234E-03
0.297E+01 0.500E-06 0.291E+01 -.158E-01 0.102E+06 0.394E+00 0.904E+03 0.483E-02 0.376E+06 0.234E-03
0.298E+01 0.500E-06 0.291E+01 -.156E-01 0.102E+06 0.394E+00 0.904E+03 0.483E-02 0.376E+06 0.234E-03
0.299E+01 0.500E-06 0.291E+01 -.150E-01 0.102E+06 0.394E+00 0.904E+03 0.483E-02 0.376E+06 0.234E-03
0.301E+01 0.500E-06 0.291E+01 -.142E-01 0.102E+06 0.394E+00 0.904E+03 0.483E-02 0.376E+06 0.234E-03
0.302E+01 0.500E-06 0.291E+01 -.130E-01 0.102E+06 0.394E+00 0.904E+03 0.483E-02 0.376E+06 0.234E-03
0.303E+01 0.500E-06 0.291E+01 -.117E-01 0.102E+06 0.394E+00 0.904E+03 0.483E-02 0.376E+06 0.234E-03
0.304E+01 0.500E-06 0.291E+01 -.102E-01 0.102E+06 0.394E+00 0.904E+03 0.483E-02 0.376E+06 0.234E-03
0.306E+01 0.500E-06 0.291E+01 -.859E-02 0.102E+06 0.394E+00 0.904E+03 0.483E-02 0.376E+06 0.234E-03
0.307E+01 0.500E-06 0.291E+01 -.683E-02 0.102E+06 0.394E+00 0.904E+03 0.483E-02 0.376E+06 0.234E-03
0.308E+01 0.500E-06 0.291E+01 -.517E-02 0.102E+06 0.394E+00 0.904E+03 0.483E-02 0.376E+06 0.234E-03
0.309E+01 0.500E-06 0.291E+01 -.377E-02 0.102E+06 0.394E+00 0.904E+03 0.483E-02 0.376E+06 0.234E-03
0.311E+01 0.500E-06 0.291E+01 -.266E-02 0.102E+06 0.394E+00 0.904E+03 0.483E-02 0.376E+06 0.234E-03
0.312E+01 0.500E-06 0.291E+01 -.174E-02 0.102E+06 0.394E+00 0.904E+03 0.483E-02 0.376E+06 0.234E-03
0.313E+01 0.500E-06 0.291E+01 -.985E-03 0.102E+06 0.394E+00 0.904E+03 0.483E-02 0.376E+06 0.234E-03
0.314E+01 0.500E-06 0.291E+01 -.332E-03 0.102E+06 0.394E+00 0.904E+03 0.483E-02 0.376E+06 0.234E-03
0.316E+01 0.500E-06 0.291E+01 0.174E-03 0.102E+06 0.394E+00 0.904E+03 0.483E-02 0.376E+06 0.234E-03
0.317E+01 0.500E-06 0.291E+01 0.309E-03 0.102E+06 0.394E+00 0.904E+03 0.483E-02 0.376E+06 0.234E-03
0.318E+01 0.500E-06 0.291E+01 -.210E-05 0.102E+06 0.394E+00 0.904E+03 0.483E-02 0.376E+06 0.234E-03
0.319E+01 0.500E-06 0.291E+01 -.711E-03 0.102E+06 0.394E+00 0.904E+03 0.483E-02 0.376E+06 0.234E-03
0.321E+01 0.500E-06 0.291E+01 -.180E-02 0.102E+06 0.394E+00 0.904E+03 0.483E-02 0.376E+06 0.234E-03
0.322E+01 0.500E-06 0.291E+01 -.321E-02 0.102E+06 0.394E+00 0.904E+03 0.484E-02 0.376E+06 0.234E-03
0.323E+01 0.500E-06 0.291E+01 -.483E-02 0.102E+06 0.394E+00 0.904E+03 0.484E-02 0.376E+06 0.234E-03
0.324E+01 0.500E-06 0.291E+01 -.659E-02 0.102E+06 0.394E+00 0.904E+03 0.484E-02 0.376E+06 0.234E-03
0.326E+01 0.500E-06 0.291E+01 -.844E-02 0.102E+06 0.394E+00 0.904E+03 0.484E-02 0.376E+06 0.234E-03
0.327E+01 0.500E-06 0.292E+01 -.103E-01 0.102E+06 0.394E+00 0.904E+03 0.484E-02 0.376E+06 0.234E-03
0.328E+01 0.500E-06 0.292E+01 -.121E-01 0.102E+06 0.394E+00 0.904E+03 0.484E-02 0.376E+06 0.234E-03
0.329E+01 0.500E-06 0.292E+01 -.140E-01 0.102E+06 0.394E+00 0.904E+03 0.484E-02 0.376E+06 0.234E-03
0.331E+01 0.500E-06 0.292E+01 -.157E-01 0.102E+06 0.394E+00 0.904E+03 0.484E-02 0.376E+06 0.234E-03
0.332E+01 0.500E-06 0.292E+01 -.167E-01 0.102E+06 0.394E+00 0.904E+03 0.484E-02 0.376E+06 0.234E-03
0.333E+01 0.500E-06 0.292E+01 -.172E-01 0.102E+06 0.394E+00 0.904E+03 0.484E-02 0.376E+06 0.234E-03
0.334E+01 0.500E-06 0.292E+01 -.170E-01 0.102E+06 0.394E+00 0.904E+03 0.484E-02 0.376E+06 0.234E-03
0.336E+01 0.500E-06 0.292E+01 -.162E-01 0.102E+06 0.394E+00 0.904E+03 0.484E-02 0.376E+06 0.234E-03
0.337E+01 0.500E-06 0.292E+01 -.144E-01 0.102E+06 0.394E+00 0.904E+03 0.484E-02 0.376E+06 0.234E-03
0.338E+01 0.500E-06 0.292E+01 -.117E-01 0.102E+06 0.394E+00 0.904E+03 0.484E-02 0.376E+06 0.234E-03
0.339E+01 0.500E-06 0.292E+01 -.798E-02 0.102E+06 0.394E+00 0.904E+03 0.484E-02 0.376E+06 0.234E-03
0.341E+01 0.500E-06 0.292E+01 -.345E-02 0.102E+06 0.394E+00 0.904E+03 0.484E-02 0.376E+06 0.234E-03
0.342E+01 0.500E-06 0.292E+01 0.187E-02 0.102E+06 0.394E+00 0.904E+03 0.484E-02 0.376E+06 0.234E-03
0.343E+01 0.500E-06 0.292E+01 0.773E-02 0.102E+06 0.394E+00 0.904E+03 0.484E-02 0.376E+06 0.234E-03
0.344E+01 0.500E-06 0.292E+01 0.138E-01 0.102E+06 0.394E+00 0.904E+03 0.484E-02 0.376E+06 0.234E-03
0.346E+01 0.500E-06 0.292E+01 0.199E-01 0.102E+06 0.394E+00 0.904E+03 0.484E-02 0.376E+06 0.234E-03
0.347E+01 0.500E-06 0.292E+01 0.259E-01 0.102E+06 0.394E+00 0.904E+03 0.484E-02 0.376E+06 0.234E-03
0.348E+01 0.500E-06 0.292E+01 0.317E-01 0.102E+06 0.394E+00 0.904E+03 0.485E-02 0.376E+06 0.234E-03
0.349E+01 0.500E-06 0.292E+01 0.372E-01 0.102E+06 0.395E+00 0.904E+03 0.485E-02 0.376E+06 0.234E-03
0.351E+01 0.500E-06 0.292E+01 0.426E-01 0.102E+06 0.395E+00 0.904E+03 0.485E-02 0.376E+06 0.234E-03
0.352E+01 0.500E-06 0.292E+01 0.471E-01 0.102E+06 0.395E+00 0.904E+03 0.485E-02 0.376E+06 0.234E-03
0.353E+01 0.500E-06 0.292E+01 0.499E-01 0.102E+06 0.395E+00 0.904E+03 0.485E-02 0.376E+06 0.234E-03
0.354E+01 0.500E-06 0.292E+01 0.512E-01 0.103E+06 0.395E+00 0.904E+03 0.485E-02 0.376E+06 0.234E-03
0.356E+01 0.500E-06 0.293E+01 0.504E-01 0.103E+06 0.395E+00 0.904E+03 0.485E-02 0.376E+06 0.234E-03
0.357E+01 0.500E-06 0.293E+01 0.474E-01 0.103E+06 0.395E+00 0.905E+03 0.486E-02 0.376E+06 0.234E-03
0.358E+01 0.500E-06 0.293E+01 0.419E-01 0.103E+06 0.395E+00 0.905E+03 0.486E-02 0.376E+06 0.235E-03
0.359E+01 0.500E-06 0.293E+01 0.344E-01 0.103E+06 0.395E+00 0.905E+03 0.486E-02 0.376E+06 0.235E-03
0.361E+01 0.500E-06 0.293E+01 0.255E-01 0.103E+06 0.395E+00 0.905E+03 0.486E-02 0.376E+06 0.235E-03
0.362E+01 0.500E-06 0.293E+01 0.157E-01 0.103E+06 0.396E+00 0.905E+03 0.486E-02 0.376E+06 0.235E-03
0.363E+01 0.500E-06 0.293E+01 0.504E-02 0.103E+06 0.396E+00 0.905E+03 0.486E-02 0.376E+06 0.235E-03
0.364E+01 0.500E-06 0.293E+01 -.772E-02 0.103E+06 0.396E+00 0.905E+03 0.486E-02 0.376E+06 0.235E-03
0.366E+01 0.500E-06 0.293E+01 -.197E-01 0.103E+06 0.396E+00 0.905E+03 0.486E-02 0.376E+06 0.235E-03
0.367E+01 0.500E-06 0.293E+01 -.310E-01 0.103E+06 0.396E+00 0.905E+03 0.486E-02 0.376E+06 0.235E-03
0.368E+01 0.500E-06 0.293E+01 -.411E-01 0.103E+06 0.395E+00 0.905E+03 0.486E-02 0.376E+06 0.235E-03
0.369E+01 0.500E-06 0.293E+01 -.503E-01 0.103E+06 0.395E+00 0.905E+03 0.486E-02 0.376E+06 0.235E-03
0.371E+01 0.500E-06 0.293E+01 -.586E-01 0.103E+06 0.395E+00 0.905E+03 0.486E-02 0.376E+06 0.235E-03
0.372E+01 0.500E-06 0.293E+01 -.665E-01 0.103E+06 0.395E+00 0.905E+03 0.486E-02 0.376E+06 0.235E-03